# Probe 0 (0.5 0 0.025)
# Time        0            
0.0006        0.280677     
0.0012        0.195717     
0.0018        0.149771     
0.0024        0.12254      
0.003         0.105181     
0.0036        0.0933185    
0.0042        0.084699     
0.0048        0.0781142    
0.0054        0.0728799    
0.006         0.0685886    
0.0066        0.0649852    
0.0072        0.0619004    
0.0078        0.0592203    
0.0084        0.056862     
0.009         0.054765     
0.0096        0.0528848    
0.0102        0.0511853    
0.0108        0.0496399    
0.0114        0.0482259    
0.012         0.0469262    
0.0126        0.0457255    
0.0132        0.0446124    
0.0138        0.0435765    
0.0144        0.0426091    
0.015         0.0416874    
0.0156        0.0408373    
0.0162        0.0400363    
0.0168        0.0392807    
0.0174        0.0385658    
0.018         0.0378884    
0.0186        0.037245     
0.0192        0.0366331    
0.0198        0.0359284    
0.0204        0.0354045    
0.021         0.0348679    
0.0216        0.0343638    
0.0222        0.0338789    
0.0228        0.0334142    
0.0234        0.0329679    
0.024         0.0325389    
0.0246        0.0321259    
0.0252        0.0317281    
0.0258        0.0313444    
0.0264        0.0309741    
0.027         0.0306164    
0.0276        0.0302706    
0.0282        0.029936     
0.0288        0.029612     
0.0294        0.0292981    
0.03          0.0289938    
0.0306        0.0286985    
0.0312        0.0284119    
0.0318        0.0281335    
0.0324        0.0278629    
0.033         0.0275998    
0.0336        0.0273438    
0.0342        0.0270945    
0.0348        0.0268518    
0.0354        0.0266153    
0.036         0.0263848    
0.0366        0.02616      
0.0372        0.0259406    
0.0378        0.0257265    
0.0384        0.0255174    
0.039         0.0253132    
0.0396        0.0251137    
0.0402        0.0249186    
0.0408        0.0247278    
0.0414        0.0245412    
0.042         0.0243586    
0.0426        0.0241798    
0.0432        0.0240048    
0.0438        0.0238334    
0.0444        0.0236654    
0.045         0.0235008    
0.0456        0.0233395    
0.0462        0.0231812    
0.0468        0.023026     
0.0474        0.0228738    
0.048         0.0227243    
0.0486        0.0225777    
0.0492        0.0224337    
0.0498        0.0222923    
0.0504        0.0221534    
0.051         0.0220169    
0.0516        0.0218828    
0.0522        0.021751     
0.0528        0.0216214    
0.0534        0.021494     
0.054         0.0213687    
0.0546        0.0212454    
0.0552        0.0211241    
0.0558        0.0210048    
0.0564        0.0208873    
0.057         0.0207717    
0.0576        0.0206578    
0.0582        0.0205457    
0.0588        0.0204353    
0.0594        0.0203265    
0.06          0.0202194    
0.0606        0.0201138    
0.0612        0.0200097    
0.0618        0.0199071    
0.0624        0.019806     
0.063         0.0197063    
0.0636        0.019608     
0.0642        0.0195111    
0.0648        0.0194154    
0.0654        0.0193211    
0.066         0.019228     
0.0666        0.0191361    
0.0672        0.0190455    
0.0678        0.018956     
0.0684        0.0188677    
0.069         0.0187805    
0.0696        0.0186944    
0.0702        0.0186094    
0.0708        0.0185255    
0.0714        0.0184425    
0.072         0.0183606    
0.0726        0.0182797    
0.0732        0.0181998    
0.0738        0.0181208    
0.0744        0.0180427    
0.075         0.0179655    
0.0756        0.0178893    
0.0762        0.0178139    
0.0768        0.0177394    
0.0774        0.0176657    
0.078         0.0175928    
0.0786        0.0175207    
0.0792        0.0174495    
0.0798        0.017379     
0.0804        0.0173093    
0.081         0.0172403    
0.0816        0.0171721    
0.0822        0.0171046    
0.0828        0.0170378    
0.0834        0.0169717    
0.084         0.0169063    
0.0846        0.0168416    
0.0852        0.0167775    
0.0858        0.016714     
0.0864        0.0166512    
0.087         0.0165891    
0.0876        0.0165275    
0.0882        0.0164666    
0.0888        0.0164062    
0.0894        0.0163464    
0.09          0.0162872    
0.0906        0.0162286    
0.0912        0.0161705    
0.0918        0.016113     
0.0924        0.016056     
0.093         0.0159995    
0.0936        0.0159436    
0.0942        0.0158882    
0.0948        0.0158332    
0.0954        0.0157788    
0.096         0.0157249    
0.0966        0.0156714    
0.0972        0.0156184    
0.0978        0.0155659    
0.0984        0.0155138    
0.099         0.0154622    
0.0996        0.015411     
0.1002        0.0153603    
0.1008        0.01531      
0.1014        0.0152601    
0.102         0.0152107    
0.1026        0.0151616    
0.1032        0.015113     
0.1038        0.0150648    
0.1044        0.0150169    
0.105         0.0149695    
0.1056        0.0149224    
0.1062        0.0148757    
0.1068        0.0148294    
0.1074        0.0147835    
0.108         0.0147379    
0.1086        0.0146927    
0.1092        0.0146478    
0.1098        0.0146033    
0.1104        0.0145591    
0.111         0.0145153    
0.1116        0.0144717    
0.1122        0.0144286    
0.1128        0.0143857    
0.1134        0.0143432    
0.114         0.014301     
0.1146        0.014259     
0.1152        0.0142174    
0.1158        0.0141762    
0.1164        0.0141352    
0.117         0.0140945    
0.1176        0.0140541    
0.1182        0.0140139    
0.1188        0.0139741    
0.1194        0.0139346    
0.12          0.0138953    
0.1206        0.0138563    
0.1212        0.0138176    
0.1218        0.0137791    
0.1224        0.0137409    
0.123         0.013703     
0.1236        0.0136653    
0.1242        0.0136279    
0.1248        0.0135907    
0.1254        0.0135538    
0.126         0.0135172    
0.1266        0.0134807    
0.1272        0.0134445    
0.1278        0.0134086    
0.1284        0.0133729    
0.129         0.0133376    
0.1296        0.0133023    
0.1302        0.0132673    
0.1308        0.0132325    
0.1314        0.013198     
0.132         0.0131636    
0.1326        0.0131294    
0.1332        0.0130955    
0.1338        0.0130618    
0.1344        0.0130283    
0.135         0.012995     
0.1356        0.012962     
0.1362        0.012929     
0.1368        0.0128963    
0.1374        0.0128638    
0.138         0.0128315    
0.1386        0.0127994    
0.1392        0.0127675    
0.1398        0.0127357    
0.1404        0.0127042    
0.141         0.0126729    
0.1416        0.0126416    
0.1422        0.0126107    
0.1428        0.0125799    
0.1434        0.0125493    
0.144         0.0125188    
0.1446        0.0124886    
0.1452        0.0124584    
0.1458        0.0124285    
0.1464        0.0123987    
0.147         0.0123691    
0.1476        0.0123397    
0.1482        0.0123104    
0.1488        0.0122523    
0.1494        0.0122239    
0.15          0.0121723    
0.1506        0.012149     
0.1512        0.0121194    
0.1518        0.0120916    
0.1524        0.0120637    
0.153         0.012036     
0.1536        0.0120084    
0.1542        0.0119811    
0.1548        0.0119538    
0.1554        0.0119267    
0.156         0.0118998    
0.1566        0.011873     
0.1572        0.0118463    
0.1578        0.0118198    
0.1584        0.0117934    
0.159         0.0117671    
0.1596        0.011741     
0.1602        0.011715     
0.1608        0.0116892    
0.1614        0.0116634    
0.162         0.0116378    
0.1626        0.0116123    
0.1632        0.011587     
0.1638        0.0115617    
0.1644        0.0115368    
0.165         0.0115119    
0.1656        0.011487     
0.1662        0.0114623    
0.1668        0.0114376    
0.1674        0.0114131    
0.168         0.0113885    
0.1686        0.0113645    
0.1692        0.0113403    
0.1698        0.0113162    
0.1704        0.0112921    
0.171         0.0112683    
0.1716        0.0112447    
0.1722        0.0112211    
0.1728        0.0111974    
0.1734        0.0111742    
0.174         0.0111508    
0.1746        0.0111276    
0.1752        0.0111045    
0.1758        0.0110815    
0.1764        0.0110577    
0.177         0.011035     
0.1776        0.0110124    
0.1782        0.0109899    
0.1788        0.0109674    
0.1794        0.0109451    
0.18          0.0109229    
0.1806        0.0109007    
0.1812        0.0108787    
0.1818        0.0108567    
0.1824        0.0108348    
0.183         0.0108131    
0.1836        0.0107914    
0.1842        0.0107698    
0.1848        0.0107484    
0.1854        0.010727     
0.186         0.0107057    
0.1866        0.0106844    
0.1872        0.0106633    
0.1878        0.0106423    
0.1884        0.0106213    
0.189         0.0106005    
0.1896        0.0105797    
0.1902        0.010559     
0.1908        0.0105384    
0.1914        0.0105179    
0.192         0.0104975    
0.1926        0.0104771    
0.1932        0.0104569    
0.1938        0.0104367    
0.1944        0.0104166    
0.195         0.0103966    
0.1956        0.0103766    
0.1962        0.0103568    
0.1968        0.010337     
0.1974        0.0103173    
0.198         0.0102976    
0.1986        0.0102781    
0.1992        0.0102587    
0.1998        0.0102393    
0.2004        0.01022      
0.201         0.0102007    
0.2016        0.0101816    
0.2022        0.0101625    
0.2028        0.0101435    
0.2034        0.0101245    
0.204         0.0101056    
0.2046        0.0100868    
0.2052        0.0100681    
0.2058        0.0100495    
0.2064        0.0100309    
0.207         0.0100124    
0.2076        0.0099939    
0.2082        0.00997554   
0.2088        0.00995719   
0.2094        0.00993896   
0.21          0.00992082   
0.2106        0.00990272   
0.2112        0.00988467   
0.2118        0.0098667    
0.2124        0.00984878   
0.213         0.00983095   
0.2136        0.00981317   
0.2142        0.00979545   
0.2148        0.00977775   
0.2154        0.00976023   
0.216         0.00974271   
0.2166        0.00972525   
0.2172        0.00970786   
0.2178        0.00969053   
0.2184        0.00967326   
0.219         0.00965605   
0.2196        0.0096389    
0.2202        0.00962181   
0.2208        0.00960477   
0.2214        0.00958781   
0.222         0.00957091   
0.2226        0.00955406   
0.2232        0.00953727   
0.2238        0.00952054   
0.2244        0.00950386   
0.225         0.00948724   
0.2256        0.00947069   
0.2262        0.00945418   
0.2268        0.00943774   
0.2274        0.00942144   
0.228         0.009405     
0.2286        0.00938872   
0.2292        0.00937249   
0.2298        0.00935632   
0.2304        0.0093402    
0.231         0.00932414   
0.2316        0.00930813   
0.2322        0.00929217   
0.2328        0.00927627   
0.2334        0.00926042   
0.234         0.0092447    
0.2346        0.00922886   
0.2352        0.00921317   
0.2358        0.00919752   
0.2364        0.00918191   
0.237         0.00916637   
0.2376        0.00915087   
0.2382        0.00913543   
0.2388        0.00912004   
0.2394        0.00910469   
0.24          0.0090894    
0.2406        0.00907421   
0.2412        0.00905895   
0.2418        0.0090438    
0.2424        0.0090287    
0.243         0.00901365   
0.2436        0.00899864   
0.2442        0.00898368   
0.2448        0.00896876   
0.2454        0.00895393   
0.246         0.00893908   
0.2466        0.00892432   
0.2472        0.0089096    
0.2478        0.0088949    
0.2484        0.00888026   
0.249         0.00886566   
0.2496        0.00885112   
0.2502        0.00883661   
0.2508        0.00882215   
0.2514        0.00880774   
0.252         0.00879336   
0.2526        0.00877904   
0.2532        0.00876475   
0.2538        0.00875051   
0.2544        0.00873631   
0.255         0.00872213   
0.2556        0.00870804   
0.2562        0.00869394   
0.2568        0.00867992   
0.2574        0.00866592   
0.258         0.00865198   
0.2586        0.00863791   
0.2592        0.00862409   
0.2598        0.00861025   
0.2604        0.00859647   
0.261         0.00858272   
0.2616        0.00856902   
0.2622        0.00855535   
0.2628        0.00854173   
0.2634        0.00852814   
0.264         0.0085146    
0.2646        0.0085011    
0.2652        0.00848763   
0.2658        0.00847419   
0.2664        0.0084608    
0.267         0.00844746   
0.2676        0.00843414   
0.2682        0.00842087   
0.2688        0.00840763   
0.2694        0.00839443   
0.27          0.00838127   
0.2706        0.00836814   
0.2712        0.00835505   
0.2718        0.00834199   
0.2724        0.00832898   
0.273         0.008316     
0.2736        0.00830306   
0.2742        0.00829014   
0.2748        0.00827727   
0.2754        0.00826444   
0.276         0.00825163   
0.2766        0.00823886   
0.2772        0.00822612   
0.2778        0.00821342   
0.2784        0.00820077   
0.279         0.00818814   
0.2796        0.00817555   
0.2802        0.00816299   
0.2808        0.00815046   
0.2814        0.00813797   
0.282         0.0081255    
0.2826        0.00811308   
0.2832        0.00810069   
0.2838        0.00808833   
0.2844        0.008076     
0.285         0.00806371   
0.2856        0.00805145   
0.2862        0.00803922   
0.2868        0.00802702   
0.2874        0.00801486   
0.288         0.00800272   
0.2886        0.00799062   
0.2892        0.00797855   
0.2898        0.00796651   
0.2904        0.0079545    
0.291         0.00794253   
0.2916        0.00793058   
0.2922        0.00791867   
0.2928        0.00790678   
0.2934        0.00789493   
0.294         0.00788309   
0.2946        0.00787132   
0.2952        0.00785954   
0.2958        0.00784781   
0.2964        0.00783611   
0.297         0.00782444   
0.2976        0.0078128    
0.2982        0.00780118   
0.2988        0.00778959   
0.2994        0.00777804   
0.3           0.00776651   
0.3006        0.00775501   
0.3012        0.00774354   
0.3018        0.0077321    
0.3024        0.00772069   
0.303         0.0077093    
0.3036        0.00769794   
0.3042        0.00768661   
0.3048        0.00767533   
0.3054        0.00766404   
0.306         0.0076528    
0.3066        0.00764158   
0.3072        0.00763039   
0.3078        0.00761922   
0.3084        0.00760809   
0.309         0.00759701   
0.3096        0.00758592   
0.3102        0.00757487   
0.3108        0.00756381   
0.3114        0.00755281   
0.312         0.00754186   
0.3126        0.0075309    
0.3132        0.00751998   
0.3138        0.00750908   
0.3144        0.00749821   
0.315         0.00748736   
0.3156        0.00747654   
0.3162        0.00746575   
0.3168        0.00745496   
0.3174        0.00744423   
0.318         0.00743352   
0.3186        0.00742282   
0.3192        0.00741215   
0.3198        0.00740151   
0.3204        0.00739089   
0.321         0.00738029   
0.3216        0.00736972   
0.3222        0.00735918   
0.3228        0.00734866   
0.3234        0.00733816   
0.324         0.00732769   
0.3246        0.00731723   
0.3252        0.00730682   
0.3258        0.00729642   
0.3264        0.00728604   
0.327         0.00727569   
0.3276        0.00726536   
0.3282        0.00725505   
0.3288        0.00724478   
0.3294        0.00723452   
0.33          0.00722428   
0.3306        0.00721407   
0.3312        0.00720388   
0.3318        0.00719371   
0.3324        0.00718357   
0.333         0.00717345   
0.3336        0.00716335   
0.3342        0.00715328   
0.3348        0.00714323   
0.3354        0.0071332    
0.336         0.00712318   
0.3366        0.0071132    
0.3372        0.00710325   
0.3378        0.00709329   
0.3384        0.0070834    
0.339         0.00707349   
0.3396        0.0070636    
0.3402        0.00705375   
0.3408        0.00704392   
0.3414        0.00703411   
0.342         0.00702432   
0.3426        0.00701455   
0.3432        0.0070048    
0.3438        0.00699508   
0.3444        0.00698537   
0.345         0.00697569   
0.3456        0.00696602   
0.3462        0.00695638   
0.3468        0.00694676   
0.3474        0.00693716   
0.348         0.00692758   
0.3486        0.00691802   
0.3492        0.00690848   
0.3498        0.00689896   
0.3504        0.00688947   
0.351         0.00687999   
0.3516        0.00687053   
0.3522        0.00686109   
0.3528        0.00685167   
0.3534        0.00684228   
0.354         0.0068329    
0.3546        0.00682354   
0.3552        0.0068142    
0.3558        0.00680488   
0.3564        0.00679559   
0.357         0.00678634   
0.3576        0.00677708   
0.3582        0.0067678    
0.3588        0.00675858   
0.3594        0.00674938   
0.36          0.00674019   
0.3606        0.00673104   
0.3612        0.00672188   
0.3618        0.00671276   
0.3624        0.00670366   
0.363         0.00669456   
0.3636        0.00668554   
0.3642        0.00667648   
0.3648        0.00666745   
0.3654        0.00665839   
0.366         0.0066494    
0.3666        0.00664042   
0.3672        0.00663151   
0.3678        0.00662257   
0.3684        0.00661364   
0.369         0.00660475   
0.3696        0.00659586   
0.3702        0.00658699   
0.3708        0.00657814   
0.3714        0.00656931   
0.372         0.00656049   
0.3726        0.0065517    
0.3732        0.00654292   
0.3738        0.00653416   
0.3744        0.00652541   
0.375         0.00651668   
0.3756        0.00650798   
0.3762        0.00649928   
0.3768        0.00649061   
0.3774        0.00648195   
0.378         0.00647331   
0.3786        0.00646467   
0.3792        0.00645608   
0.3798        0.0064475    
0.3804        0.00643893   
0.381         0.00643037   
0.3816        0.00642183   
0.3822        0.00641334   
0.3828        0.00640479   
0.3834        0.00639632   
0.384         0.00638784   
0.3846        0.0063794    
0.3852        0.00637096   
0.3858        0.00636254   
0.3864        0.00635415   
0.387         0.00634577   
0.3876        0.0063374    
0.3882        0.00632904   
0.3888        0.0063207    
0.3894        0.00631226   
0.39          0.00630406   
0.3906        0.00629575   
0.3912        0.00628748   
0.3918        0.00627921   
0.3924        0.00627097   
0.393         0.00626274   
0.3936        0.00625453   
0.3942        0.00624633   
0.3948        0.00623814   
0.3954        0.00622999   
0.396         0.00622183   
0.3966        0.00621369   
0.3972        0.00620558   
0.3978        0.00619747   
0.3984        0.00618939   
0.399         0.0061813    
0.3996        0.00617325   
0.4002        0.00616521   
0.4008        0.00615718   
0.4014        0.00614917   
0.402         0.00614117   
0.4026        0.00613319   
0.4032        0.00612522   
0.4038        0.00611727   
0.4044        0.00610933   
0.405         0.0061014    
0.4056        0.00609349   
0.4062        0.0060856    
0.4068        0.00607772   
0.4074        0.00606985   
0.408         0.006062     
0.4086        0.00605415   
0.4092        0.00604635   
0.4098        0.00603854   
0.4104        0.00603075   
0.411         0.00602297   
0.4116        0.00601521   
0.4122        0.00600746   
0.4128        0.00599972   
0.4134        0.005992     
0.414         0.00598429   
0.4146        0.0059766    
0.4152        0.00596892   
0.4158        0.00596125   
0.4164        0.0059536    
0.417         0.00594597   
0.4176        0.00593834   
0.4182        0.00593073   
0.4188        0.00592314   
0.4194        0.00591553   
0.42          0.00590799   
0.4206        0.00590043   
0.4212        0.00589289   
0.4218        0.00588536   
0.4224        0.00587785   
0.423         0.00587035   
0.4236        0.00586286   
0.4242        0.00585539   
0.4248        0.00584793   
0.4254        0.00584048   
0.426         0.00583305   
0.4266        0.00582563   
0.4272        0.00581822   
0.4278        0.00581083   
0.4284        0.00580344   
0.429         0.00579609   
0.4296        0.00578873   
0.4302        0.00578138   
0.4308        0.00577402   
0.4314        0.00576674   
0.432         0.00575944   
0.4326        0.00575215   
0.4332        0.00574487   
0.4338        0.00573761   
0.4344        0.00573036   
0.435         0.00572312   
0.4356        0.00571588   
0.4362        0.00570869   
0.4368        0.00570148   
0.4374        0.00569429   
0.438         0.0056871    
0.4386        0.00567996   
0.4392        0.0056728    
0.4398        0.00566566   
0.4404        0.00565854   
0.441         0.00565143   
0.4416        0.00564432   
0.4422        0.00563724   
0.4428        0.00563009   
0.4434        0.00562309   
0.444         0.00561604   
0.4446        0.00560901   
0.4452        0.00560201   
0.4458        0.005595     
0.4464        0.00558797   
0.447         0.00558097   
0.4476        0.00557399   
0.4482        0.00556702   
0.4488        0.00556006   
0.4494        0.00555312   
0.45          0.00554619   
0.4506        0.00553927   
0.4512        0.00553236   
0.4518        0.00552547   
0.4524        0.00551857   
0.453         0.00551171   
0.4536        0.00550484   
0.4542        0.00549802   
0.4548        0.0054912    
0.4554        0.00548431   
0.456         0.00547752   
0.4566        0.00547072   
0.4572        0.00546392   
0.4578        0.00545714   
0.4584        0.00545037   
0.459         0.00544364   
0.4596        0.00543691   
0.4602        0.00543018   
0.4608        0.00542345   
0.4614        0.00541675   
0.462         0.00541003   
0.4626        0.00540336   
0.4632        0.00539666   
0.4638        0.00539001   
0.4644        0.00538335   
0.465         0.0053767    
0.4656        0.00537007   
0.4662        0.00536345   
0.4668        0.00535683   
0.4674        0.00535024   
0.468         0.00534363   
0.4686        0.00533705   
0.4692        0.00533049   
0.4698        0.00532394   
0.4704        0.0053174    
0.471         0.00531085   
0.4716        0.00530433   
0.4722        0.00529782   
0.4728        0.00529132   
0.4734        0.00528482   
0.474         0.00527834   
0.4746        0.00527189   
0.4752        0.00526541   
0.4758        0.00525896   
0.4764        0.00525252   
0.477         0.00524609   
0.4776        0.00523968   
0.4782        0.00523327   
0.4788        0.00522687   
0.4794        0.00522048   
0.48          0.00521411   
0.4806        0.00520774   
0.4812        0.00520138   
0.4818        0.00519502   
0.4824        0.00518869   
0.483         0.00518238   
0.4836        0.00517607   
0.4842        0.00516976   
0.4848        0.00516347   
0.4854        0.00515718   
0.486         0.00515091   
0.4866        0.00514465   
0.4872        0.00513839   
0.4878        0.00513216   
0.4884        0.00512592   
0.489         0.00511969   
0.4896        0.00511348   
0.4902        0.00510728   
0.4908        0.00510108   
0.4914        0.0050949    
0.492         0.00508873   
0.4926        0.00508257   
0.4932        0.00507641   
0.4938        0.00507026   
0.4944        0.00506413   
0.495         0.00505801   
0.4956        0.00505189   
0.4962        0.00504577   
0.4968        0.00503969   
0.4974        0.00503361   
0.498         0.00502753   
0.4986        0.00502147   
0.4992        0.00501541   
0.4998        0.00500937   
0.5004        0.00500333   
0.501         0.0049973    
0.5016        0.00499129   
0.5022        0.00498528   
0.5028        0.00497929   
0.5034        0.00497329   
0.504         0.00496731   
0.5046        0.00496134   
0.5052        0.00495538   
0.5058        0.00494943   
0.5064        0.00494349   
0.507         0.00493755   
0.5076        0.00493163   
0.5082        0.00492572   
0.5088        0.00491981   
0.5094        0.00491392   
0.51          0.00490804   
0.5106        0.00490216   
0.5112        0.00489631   
0.5118        0.00489044   
0.5124        0.00488457   
0.513         0.00487875   
0.5136        0.00487291   
0.5142        0.00486709   
0.5148        0.00486127   
0.5154        0.00485548   
0.516         0.00485267   
0.5166        0.00484062   
0.5172        0.00483891   
0.5178        0.00483211   
0.5184        0.00482941   
0.519         0.00481779   
0.5196        0.00481605   
0.5202        0.00480891   
0.5208        0.00480629   
0.5214        0.00479511   
0.522         0.00479329   
0.5226        0.0047859    
0.5232        0.00478339   
0.5238        0.00477247   
0.5244        0.00477064   
0.525         0.00476307   
0.5256        0.00476061   
0.5262        0.00475      
0.5268        0.00474824   
0.5274        0.00474039   
0.528         0.00473801   
0.5286        0.0047276    
0.5292        0.00472574   
0.5298        0.00471787   
0.5304        0.00471554   
0.531         0.00470535   
0.5316        0.00470348   
0.5322        0.0046955    
0.5328        0.00469322   
0.5334        0.00468323   
0.534         0.00468135   
0.5346        0.00467327   
0.5352        0.00467104   
0.5358        0.00466124   
0.5364        0.00465935   
0.537         0.0046512    
0.5376        0.004649     
0.5382        0.00463937   
0.5388        0.0046375    
0.5394        0.00462925   
0.54          0.0046271    
0.5406        0.00461763   
0.5412        0.00461575   
0.5418        0.00460747   
0.5424        0.00460536   
0.543         0.00459601   
0.5436        0.00459413   
0.5442        0.00458578   
0.5448        0.00458371   
0.5454        0.00457452   
0.546         0.00457262   
0.5466        0.00456428   
0.5472        0.00456223   
0.5478        0.00455314   
0.5484        0.00455125   
0.549         0.00454289   
0.5496        0.00454088   
0.5502        0.00453189   
0.5508        0.00453      
0.5514        0.00452165   
0.552         0.00451965   
0.5526        0.00451078   
0.5532        0.00450891   
0.5538        0.00450049   
0.5544        0.00449851   
0.555         0.00448982   
0.5556        0.00448793   
0.5562        0.00447947   
0.5568        0.00447756   
0.5574        0.00446902   
0.558         0.00446706   
0.5586        0.00445861   
0.5592        0.00445671   
0.5598        0.00444816   
0.5604        0.0044463    
0.561         0.00443789   
0.5616        0.00443601   
0.5622        0.00442751   
0.5628        0.00442567   
0.5634        0.00441729   
0.564         0.00441544   
0.5646        0.00440698   
0.5652        0.00440517   
0.5658        0.0043968    
0.5664        0.00439497   
0.567         0.00438658   
0.5676        0.00438478   
0.5682        0.00437644   
0.5688        0.00437463   
0.5694        0.00436631   
0.57          0.00436452   
0.5706        0.0043562    
0.5712        0.00435442   
0.5718        0.00434614   
0.5724        0.00434437   
0.573         0.00433606   
0.5736        0.00433429   
0.5742        0.00432612   
0.5748        0.00432435   
0.5754        0.00431606   
0.576         0.00431433   
0.5766        0.00430618   
0.5772        0.00430442   
0.5778        0.00429619   
0.5784        0.00429447   
0.579         0.00428637   
0.5796        0.00428463   
0.5802        0.00427644   
0.5808        0.00427473   
0.5814        0.00426666   
0.582         0.00426492   
0.5826        0.00425683   
0.5832        0.00425513   
0.5838        0.00424704   
0.5844        0.00424534   
0.585         0.00423732   
0.5856        0.00423563   
0.5862        0.00422756   
0.5868        0.00422589   
0.5874        0.00421791   
0.588         0.00421625   
0.5886        0.0042082    
0.5892        0.00420652   
0.5898        0.00419864   
0.5904        0.00419697   
0.591         0.00418892   
0.5916        0.0041873    
0.5922        0.00417945   
0.5928        0.00417782   
0.5934        0.00416979   
0.594         0.00416814   
0.5946        0.00416042   
0.5952        0.00415881   
0.5958        0.0041507    
0.5964        0.00414913   
0.597         0.00414147   
0.5976        0.00413984   
0.5982        0.0041318    
0.5988        0.00413023   
0.5994        0.00412262   
0.6           0.00412099   
0.6006        0.004113     
0.6012        0.00411145   
0.6018        0.00410386   
0.6024        0.00410225   
0.603         0.00409435   
0.6036        0.00409279   
0.6042        0.00408519   
0.6048        0.00408358   
0.6054        0.00407578   
0.606         0.00407424   
0.6066        0.00406664   
0.6072        0.00406508   
0.6078        0.0040573    
0.6084        0.00405578   
0.609         0.00404823   
0.6096        0.00404669   
0.6102        0.00403891   
0.6108        0.00403741   
0.6114        0.00402992   
0.612         0.00402838   
0.6126        0.00402064   
0.6132        0.00401911   
0.6138        0.00401179   
0.6144        0.00401024   
0.615         0.00400242   
0.6156        0.004001     
0.6162        0.00399364   
0.6168        0.00399213   
0.6174        0.00398439   
0.618         0.00398296   
0.6186        0.00397563   
0.6192        0.00397412   
0.6198        0.00396645   
0.6204        0.00396502   
0.621         0.00395771   
0.6216        0.00395626   
0.6222        0.00394859   
0.6228        0.00394718   
0.6234        0.00393993   
0.624         0.00393845   
0.6246        0.00393086   
0.6252        0.00392945   
0.6258        0.00392223   
0.6264        0.00392077   
0.627         0.00391322   
0.6276        0.00391183   
0.6282        0.00390463   
0.6288        0.00390318   
0.6294        0.00389568   
0.63          0.0038943    
0.6306        0.00388712   
0.6312        0.00388569   
0.6318        0.00387825   
0.6324        0.00387688   
0.633         0.00386973   
0.6336        0.00386831   
0.6342        0.0038609    
0.6348        0.00385955   
0.6354        0.00385242   
0.636         0.00385101   
0.6366        0.00384367   
0.6372        0.00384232   
0.6378        0.0038352    
0.6384        0.00383382   
0.639         0.00382647   
0.6396        0.00382525   
0.6402        0.00381808   
0.6408        0.00381678   
0.6414        0.00380946   