# Probe 0 (0.5 0 0.025)
# Time        0            
0.0006        (-0.000511869 8.64719e-06 0)
0.0012        (-0.0008673 1.45779e-05 0)
0.0018        (-0.00113975 1.91444e-05 0)
0.0024        (-0.00136296 2.29006e-05 0)
0.003         (-0.00155476 2.61411e-05 0)
0.0036        (-0.00172509 2.90298e-05 0)
0.0042        (-0.0018798 3.16641e-05 0)
0.0048        (-0.00202259 3.41046e-05 0)
0.0054        (-0.00215589 3.63921e-05 0)
0.006         (-0.00228142 3.85551e-05 0)
0.0066        (-0.00240042 4.0614e-05 0)
0.0072        (-0.00251384 4.25845e-05 0)
0.0078        (-0.00262239 4.44788e-05 0)
0.0084        (-0.00272668 4.63065e-05 0)
0.009         (-0.00282717 4.80755e-05 0)
0.0096        (-0.00292425 4.97922e-05 0)
0.0102        (-0.00301826 5.14622e-05 0)
0.0108        (-0.00310947 5.309e-05 0)
0.0114        (-0.00319812 5.46796e-05 0)
0.012         (-0.00328442 5.62343e-05 0)
0.0126        (-0.00336855 5.77572e-05 0)
0.0132        (-0.00345066 5.92509e-05 0)
0.0138        (-0.0035309 6.07176e-05 0)
0.0144        (-0.00360939 6.21594e-05 0)
0.015         (-0.00368621 6.35776e-05 0)
0.0156        (-0.0037615 6.49745e-05 0)
0.0162        (-0.00383534 6.63515e-05 0)
0.0168        (-0.00390781 6.77099e-05 0)
0.0174        (-0.00397899 6.90509e-05 0)
0.018         (-0.00404894 7.03757e-05 0)
0.0186        (-0.00411774 7.1685e-05 0)
0.0192        (-0.00418543 7.29803e-05 0)
0.0198        (-0.00425206 7.42622e-05 0)
0.0204        (-0.00431769 7.55314e-05 0)
0.021         (-0.00438236 7.67886e-05 0)
0.0216        (-0.00444611 7.80346e-05 0)
0.0222        (-0.00450898 7.92699e-05 0)
0.0228        (-0.00457101 8.04952e-05 0)
0.0234        (-0.00463223 8.17109e-05 0)
0.024         (-0.00469267 8.29176e-05 0)
0.0246        (-0.00475236 8.41158e-05 0)
0.0252        (-0.00481133 8.53059e-05 0)
0.0258        (-0.0048696 8.64884e-05 0)
0.0264        (-0.0049272 8.76637e-05 0)
0.027         (-0.00498415 8.88321e-05 0)
0.0276        (-0.00504048 8.99939e-05 0)
0.0282        (-0.0050962 9.11495e-05 0)
0.0288        (-0.00515134 9.22992e-05 0)
0.0294        (-0.0052059 9.34433e-05 0)
0.03          (-0.00525992 9.45821e-05 0)
0.0306        (-0.0053134 9.57159e-05 0)
0.0312        (-0.00536636 9.68448e-05 0)
0.0318        (-0.00541882 9.79692e-05 0)
0.0324        (-0.00547079 9.90892e-05 0)
0.033         (-0.00552229 0.000100205 0)
0.0336        (-0.00557332 0.000101317 0)
0.0342        (-0.00562391 0.000102425 0)
0.0348        (-0.00567405 0.00010353 0)
0.0354        (-0.00572377 0.000104632 0)
0.036         (-0.00577307 0.00010573 0)
0.0366        (-0.00582197 0.000106825 0)
0.0372        (-0.00587047 0.000107918 0)
0.0378        (-0.00591859 0.000109007 0)
0.0384        (-0.00596633 0.000110094 0)
0.039         (-0.0060137 0.000111179 0)
0.0396        (-0.00606072 0.000112262 0)
0.0402        (-0.00610738 0.000113342 0)
0.0408        (-0.0061537 0.00011442 0)
0.0414        (-0.00619968 0.000115497 0)
0.042         (-0.00624534 0.000116571 0)
0.0426        (-0.00629067 0.000117644 0)
0.0432        (-0.00633569 0.000118716 0)
0.0438        (-0.0063804 0.000119785 0)
0.0444        (-0.00642481 0.000120854 0)
0.045         (-0.00646893 0.000121921 0)
0.0456        (-0.00651275 0.000122987 0)
0.0462        (-0.0065563 0.000124052 0)
0.0468        (-0.00659956 0.000125116 0)
0.0474        (-0.00664255 0.000126179 0)
0.048         (-0.00668527 0.000127241 0)
0.0486        (-0.00672773 0.000128302 0)
0.0492        (-0.00676993 0.000129363 0)
0.0498        (-0.00681188 0.000130423 0)
0.0504        (-0.00685358 0.000131483 0)
0.051         (-0.00689504 0.000132542 0)
0.0516        (-0.00693625 0.0001336 0)
0.0522        (-0.00697723 0.000134658 0)
0.0528        (-0.00701798 0.000135716 0)
0.0534        (-0.0070585 0.000136774 0)
0.054         (-0.0070988 0.000137831 0)
0.0546        (-0.00713887 0.000138889 0)
0.0552        (-0.00717873 0.000139946 0)
0.0558        (-0.00721838 0.000141003 0)
0.0564        (-0.00725782 0.00014206 0)
0.057         (-0.00729705 0.000143118 0)
0.0576        (-0.00733608 0.000144175 0)
0.0582        (-0.00737491 0.000145233 0)
0.0588        (-0.00741354 0.000146291 0)
0.0594        (-0.00745197 0.000147349 0)
0.06          (-0.00749022 0.000148408 0)
0.0606        (-0.00752828 0.000149467 0)
0.0612        (-0.00756615 0.000150526 0)
0.0618        (-0.00760384 0.000151586 0)
0.0624        (-0.00764135 0.000152646 0)
0.063         (-0.00767869 0.000153707 0)
0.0636        (-0.00771585 0.000154768 0)
0.0642        (-0.00775283 0.00015583 0)
0.0648        (-0.00778965 0.000156893 0)
0.0654        (-0.0078263 0.000157956 0)
0.066         (-0.00786278 0.00015902 0)
0.0666        (-0.0078991 0.000160084 0)
0.0672        (-0.00793526 0.00016115 0)
0.0678        (-0.00797126 0.000162216 0)
0.0684        (-0.00800711 0.000163283 0)
0.069         (-0.0080428 0.000164351 0)
0.0696        (-0.00807833 0.00016542 0)
0.0702        (-0.00811372 0.000166489 0)
0.0708        (-0.00814896 0.00016756 0)
0.0714        (-0.00818405 0.000168632 0)
0.072         (-0.00821899 0.000169704 0)
0.0726        (-0.0082538 0.000170778 0)
0.0732        (-0.00828846 0.000171853 0)
0.0738        (-0.00832298 0.000172928 0)
0.0744        (-0.00835736 0.000174005 0)
0.075         (-0.00839161 0.000175083 0)
0.0756        (-0.00842572 0.000176162 0)
0.0762        (-0.0084597 0.000177243 0)
0.0768        (-0.00849355 0.000178324 0)
0.0774        (-0.00852727 0.000179407 0)
0.078         (-0.00856085 0.000180491 0)
0.0786        (-0.00859432 0.000181576 0)
0.0792        (-0.00862765 0.000182663 0)
0.0798        (-0.00866086 0.000183751 0)
0.0804        (-0.00869395 0.00018484 0)
0.081         (-0.00872692 0.00018593 0)
0.0816        (-0.00875977 0.000187022 0)
0.0822        (-0.00879249 0.000188115 0)
0.0828        (-0.0088251 0.00018921 0)
0.0834        (-0.0088576 0.000190306 0)
0.084         (-0.00888998 0.000191403 0)
0.0846        (-0.00892224 0.000192502 0)
0.0852        (-0.0089544 0.000193602 0)
0.0858        (-0.00898644 0.000194704 0)
0.0864        (-0.00901837 0.000195807 0)
0.087         (-0.00905019 0.000196912 0)
0.0876        (-0.0090819 0.000198018 0)
0.0882        (-0.00911351 0.000199126 0)
0.0888        (-0.00914501 0.000200235 0)
0.0894        (-0.0091764 0.000201346 0)
0.09          (-0.00920769 0.000202459 0)
0.0906        (-0.00923888 0.000203573 0)
0.0912        (-0.00926997 0.000204689 0)
0.0918        (-0.00930096 0.000205806 0)
0.0924        (-0.00933184 0.000206925 0)
0.093         (-0.00936263 0.000208046 0)
0.0936        (-0.00939332 0.000209168 0)
0.0942        (-0.00942391 0.000210292 0)
0.0948        (-0.00945441 0.000211418 0)
0.0954        (-0.00948481 0.000212545 0)
0.096         (-0.00951511 0.000213674 0)
0.0966        (-0.00954533 0.000214805 0)
0.0972        (-0.00957545 0.000215938 0)
0.0978        (-0.00960548 0.000217072 0)
0.0984        (-0.00963541 0.000218208 0)
0.099         (-0.00966526 0.000219346 0)
0.0996        (-0.00969502 0.000220485 0)
0.1002        (-0.00972469 0.000221627 0)
0.1008        (-0.00975427 0.00022277 0)
0.1014        (-0.00978377 0.000223915 0)
0.102         (-0.00981317 0.000225062 0)
0.1026        (-0.0098425 0.00022621 0)
0.1032        (-0.00987174 0.000227361 0)
0.1038        (-0.00990089 0.000228513 0)
0.1044        (-0.00992996 0.000229668 0)
0.105         (-0.00995895 0.000230824 0)
0.1056        (-0.00998786 0.000231982 0)
0.1062        (-0.0100167 0.000233141 0)
0.1068        (-0.0100454 0.000234303 0)
0.1074        (-0.0100741 0.000235467 0)
0.108         (-0.0101027 0.000236632 0)
0.1086        (-0.0101312 0.0002378 0)
0.1092        (-0.0101596 0.000238969 0)
0.1098        (-0.010188 0.000240141 0)
0.1104        (-0.0102162 0.000241314 0)
0.111         (-0.0102444 0.000242489 0)
0.1116        (-0.0102726 0.000243667 0)
0.1122        (-0.0103006 0.000244846 0)
0.1128        (-0.0103286 0.000246027 0)
0.1134        (-0.0103565 0.00024721 0)
0.114         (-0.0103843 0.000248395 0)
0.1146        (-0.0104121 0.000249583 0)
0.1152        (-0.0104398 0.000250772 0)
0.1158        (-0.0104674 0.000251963 0)
0.1164        (-0.0104949 0.000253156 0)
0.117         (-0.0105224 0.000254351 0)
0.1176        (-0.0105498 0.000255549 0)
0.1182        (-0.0105771 0.000256748 0)
0.1188        (-0.0106044 0.000257949 0)
0.1194        (-0.0106316 0.000259153 0)
0.12          (-0.0106587 0.000260358 0)
0.1206        (-0.0106857 0.000261566 0)
0.1212        (-0.0107127 0.000262775 0)
0.1218        (-0.0107397 0.000263987 0)
0.1224        (-0.0107665 0.000265201 0)
0.123         (-0.0107933 0.000266417 0)
0.1236        (-0.01082 0.000267635 0)
0.1242        (-0.0108467 0.000268855 0)
0.1248        (-0.0108733 0.000270077 0)
0.1254        (-0.0108998 0.000271301 0)
0.126         (-0.0109263 0.000272527 0)
0.1266        (-0.0109527 0.000273756 0)
0.1272        (-0.0109791 0.000274987 0)
0.1278        (-0.0110054 0.000276219 0)
0.1284        (-0.0110316 0.000277454 0)
0.129         (-0.0110577 0.000278691 0)
0.1296        (-0.0110839 0.000279931 0)
0.1302        (-0.0111099 0.000281172 0)
0.1308        (-0.0111359 0.000282415 0)
0.1314        (-0.0111618 0.000283661 0)
0.132         (-0.0111877 0.000284909 0)
0.1326        (-0.0112135 0.000286159 0)
0.1332        (-0.0112392 0.000287411 0)
0.1338        (-0.0112649 0.000288665 0)
0.1344        (-0.0112905 0.000289922 0)
0.135         (-0.0113161 0.000291181 0)
0.1356        (-0.0113416 0.000292442 0)
0.1362        (-0.0113671 0.000293705 0)
0.1368        (-0.0113925 0.00029497 0)
0.1374        (-0.0114179 0.000296238 0)
0.138         (-0.0114432 0.000297508 0)
0.1386        (-0.0114684 0.000298779 0)
0.1392        (-0.0114936 0.000300054 0)
0.1398        (-0.0115187 0.00030133 0)
0.1404        (-0.0115438 0.000302609 0)
0.141         (-0.0115688 0.00030389 0)
0.1416        (-0.0115938 0.000305173 0)
0.1422        (-0.0116187 0.000306458 0)
0.1428        (-0.0116436 0.000307746 0)
0.1434        (-0.0116684 0.000309035 0)
0.144         (-0.0116931 0.000310328 0)
0.1446        (-0.0117178 0.000311622 0)
0.1452        (-0.0117425 0.000312918 0)
0.1458        (-0.0117671 0.000314217 0)
0.1464        (-0.0117917 0.000315518 0)
0.147         (-0.0118162 0.000316822 0)
0.1476        (-0.0118406 0.000318127 0)
0.1482        (-0.011865 0.000319435 0)
0.1488        (-0.0118893 0.000320741 0)
0.1494        (-0.0119136 0.000322049 0)
0.15          (-0.0119378 0.00032336 0)
0.1506        (-0.0119619 0.000324673 0)
0.1512        (-0.011986 0.000325988 0)
0.1518        (-0.0120101 0.000327306 0)
0.1524        (-0.0120341 0.000328626 0)
0.153         (-0.012058 0.000329948 0)
0.1536        (-0.0120819 0.000331272 0)
0.1542        (-0.0121058 0.000332599 0)
0.1548        (-0.0121296 0.000333928 0)
0.1554        (-0.0121534 0.00033526 0)
0.156         (-0.0121771 0.000336594 0)
0.1566        (-0.0122008 0.00033793 0)
0.1572        (-0.0122244 0.000339268 0)
0.1578        (-0.012248 0.000340609 0)
0.1584        (-0.0122716 0.000341952 0)
0.159         (-0.0122951 0.000343297 0)
0.1596        (-0.0123185 0.000344645 0)
0.1602        (-0.0123419 0.000345995 0)
0.1608        (-0.0123653 0.000347347 0)
0.1614        (-0.0123886 0.000348702 0)
0.162         (-0.0124119 0.000350059 0)
0.1626        (-0.0124351 0.000351419 0)
0.1632        (-0.0124583 0.00035278 0)
0.1638        (-0.0124815 0.000354145 0)
0.1644        (-0.0125046 0.000355511 0)
0.165         (-0.0125277 0.00035688 0)
0.1656        (-0.0125507 0.000358251 0)
0.1662        (-0.0125737 0.000359625 0)
0.1668        (-0.0125966 0.000361 0)
0.1674        (-0.0126195 0.000362379 0)
0.168         (-0.0126424 0.000363759 0)
0.1686        (-0.0126652 0.000365142 0)
0.1692        (-0.012688 0.000366528 0)
0.1698        (-0.0127107 0.000367915 0)
0.1704        (-0.0127334 0.000369305 0)
0.171         (-0.012756 0.000370698 0)
0.1716        (-0.0127787 0.000372093 0)
0.1722        (-0.0128012 0.00037349 0)
0.1728        (-0.0128238 0.00037489 0)
0.1734        (-0.0128463 0.000376291 0)
0.174         (-0.0128687 0.000377696 0)
0.1746        (-0.0128911 0.000379103 0)
0.1752        (-0.0129135 0.000380512 0)
0.1758        (-0.0129359 0.000381923 0)
0.1764        (-0.0129582 0.000383335 0)
0.177         (-0.0129804 0.000384749 0)
0.1776        (-0.0130026 0.000386166 0)
0.1782        (-0.0130248 0.000387585 0)
0.1788        (-0.013047 0.000389006 0)
0.1794        (-0.0130691 0.00039043 0)
0.18          (-0.0130912 0.000391856 0)
0.1806        (-0.0131132 0.000393285 0)
0.1812        (-0.0131352 0.000394716 0)
0.1818        (-0.0131572 0.00039615 0)
0.1824        (-0.0131791 0.000397586 0)
0.183         (-0.013201 0.000399024 0)
0.1836        (-0.0132228 0.000400465 0)
0.1842        (-0.0132446 0.000401908 0)
0.1848        (-0.0132664 0.000403354 0)
0.1854        (-0.0132882 0.000404802 0)
0.186         (-0.0133099 0.000406252 0)
0.1866        (-0.0133315 0.000407705 0)
0.1872        (-0.0133532 0.00040916 0)
0.1878        (-0.0133748 0.000410618 0)
0.1884        (-0.0133963 0.000412078 0)
0.189         (-0.0134179 0.000413541 0)
0.1896        (-0.0134394 0.000415006 0)
0.1902        (-0.0134608 0.000416473 0)
0.1908        (-0.0134822 0.000417943 0)
0.1914        (-0.0135036 0.000419415 0)
0.192         (-0.013525 0.00042089 0)
0.1926        (-0.0135463 0.000422367 0)
0.1932        (-0.0135676 0.000423846 0)
0.1938        (-0.0135889 0.000425328 0)
0.1944        (-0.0136101 0.000426813 0)
0.195         (-0.0136313 0.000428299 0)
0.1956        (-0.0136524 0.000429789 0)
0.1962        (-0.0136736 0.00043128 0)
0.1968        (-0.0136946 0.000432774 0)
0.1974        (-0.0137157 0.000434271 0)
0.198         (-0.0137367 0.00043577 0)
0.1986        (-0.0137577 0.000437271 0)
0.1992        (-0.0137787 0.000438775 0)
0.1998        (-0.0137996 0.000440282 0)
0.2004        (-0.0138205 0.00044179 0)
0.201         (-0.0138414 0.000443301 0)
0.2016        (-0.0138622 0.000444815 0)
0.2022        (-0.013883 0.000446331 0)
0.2028        (-0.0139038 0.000447849 0)
0.2034        (-0.0139245 0.000449371 0)
0.204         (-0.0139452 0.000450894 0)
0.2046        (-0.0139659 0.00045242 0)
0.2052        (-0.0139865 0.000453948 0)
0.2058        (-0.0140071 0.000455479 0)
0.2064        (-0.0140277 0.000457012 0)
0.207         (-0.0140482 0.000458547 0)
0.2076        (-0.0140688 0.000460085 0)
0.2082        (-0.0140892 0.000461626 0)
0.2088        (-0.0141097 0.000463169 0)
0.2094        (-0.0141301 0.000464714 0)
0.21          (-0.0141505 0.000466262 0)
0.2106        (-0.0141709 0.000467812 0)
0.2112        (-0.0141912 0.000469364 0)
0.2118        (-0.0142115 0.00047092 0)
0.2124        (-0.0142318 0.000472477 0)
0.213         (-0.0142521 0.000474037 0)
0.2136        (-0.0142723 0.0004756 0)
0.2142        (-0.0142925 0.000477164 0)
0.2148        (-0.0143126 0.000478732 0)
0.2154        (-0.0143327 0.000480302 0)
0.216         (-0.0143528 0.000481874 0)
0.2166        (-0.0143729 0.000483449 0)
0.2172        (-0.014393 0.000485026 0)
0.2178        (-0.014413 0.000486606 0)
0.2184        (-0.014433 0.000488188 0)
0.219         (-0.0144529 0.000489772 0)
0.2196        (-0.0144728 0.000491359 0)
0.2202        (-0.0144927 0.000492948 0)
0.2208        (-0.0145126 0.000494539 0)
0.2214        (-0.0145325 0.000496133 0)
0.222         (-0.0145523 0.00049773 0)
0.2226        (-0.0145721 0.000499329 0)
0.2232        (-0.0145918 0.000500931 0)
0.2238        (-0.0146115 0.000502535 0)
0.2244        (-0.0146313 0.000504142 0)
0.225         (-0.0146509 0.000505751 0)
0.2256        (-0.0146706 0.000507362 0)
0.2262        (-0.0146902 0.000508976 0)
0.2268        (-0.0147098 0.000510592 0)
0.2274        (-0.0147294 0.000512206 0)
0.228         (-0.0147489 0.000513828 0)
0.2286        (-0.0147684 0.000515452 0)
0.2292        (-0.0147879 0.000517078 0)
0.2298        (-0.0148074 0.000518707 0)
0.2304        (-0.0148268 0.000520339 0)
0.231         (-0.0148462 0.000521973 0)
0.2316        (-0.0148656 0.000523609 0)
0.2322        (-0.014885 0.000525248 0)
0.2328        (-0.0149043 0.000526889 0)
0.2334        (-0.0149236 0.000528533 0)
0.234         (-0.0149429 0.000530179 0)
0.2346        (-0.0149621 0.000531828 0)
0.2352        (-0.0149813 0.000533479 0)
0.2358        (-0.0150005 0.000535133 0)
0.2364        (-0.0150197 0.000536789 0)
0.237         (-0.0150389 0.000538447 0)
0.2376        (-0.015058 0.000540108 0)
0.2382        (-0.0150771 0.000541772 0)
0.2388        (-0.0150961 0.000543438 0)
0.2394        (-0.0151152 0.000545106 0)
0.24          (-0.0151342 0.000546777 0)
0.2406        (-0.0151532 0.000548451 0)
0.2412        (-0.0151722 0.000550127 0)
0.2418        (-0.0151911 0.000551805 0)
0.2424        (-0.01521 0.000553486 0)
0.243         (-0.0152289 0.000555169 0)
0.2436        (-0.0152478 0.000556855 0)
0.2442        (-0.0152667 0.000558543 0)
0.2448        (-0.0152855 0.000560233 0)
0.2454        (-0.0153043 0.000561926 0)
0.246         (-0.0153231 0.000563622 0)
0.2466        (-0.0153418 0.00056532 0)
0.2472        (-0.0153605 0.00056702 0)
0.2478        (-0.0153792 0.000568723 0)
0.2484        (-0.0153979 0.000570429 0)
0.249         (-0.0154166 0.000572136 0)
0.2496        (-0.0154352 0.000573847 0)
0.2502        (-0.0154538 0.00057556 0)
0.2508        (-0.0154724 0.000577275 0)
0.2514        (-0.0154909 0.000578992 0)
0.252         (-0.0155095 0.000580713 0)
0.2526        (-0.015528 0.000582435 0)
0.2532        (-0.0155465 0.00058416 0)
0.2538        (-0.0155649 0.000585888 0)
0.2544        (-0.0155834 0.000587618 0)
0.255         (-0.0156018 0.000589351 0)
0.2556        (-0.0156202 0.000591086 0)
0.2562        (-0.0156386 0.000592823 0)
0.2568        (-0.0156569 0.000594563 0)
0.2574        (-0.0156752 0.000596305 0)
0.258         (-0.0156935 0.00059805 0)
0.2586        (-0.0157118 0.000599798 0)
0.2592        (-0.0157301 0.000601547 0)
0.2598        (-0.0157483 0.0006033 0)
0.2604        (-0.0157665 0.000605055 0)
0.261         (-0.0157847 0.000606812 0)
0.2616        (-0.0158029 0.000608571 0)
0.2622        (-0.015821 0.000610334 0)
0.2628        (-0.0158391 0.000612098 0)
0.2634        (-0.0158572 0.000613865 0)
0.264         (-0.0158753 0.000615635 0)
0.2646        (-0.0158934 0.000617407 0)
0.2652        (-0.0159114 0.000619181 0)
0.2658        (-0.0159294 0.000620958 0)
0.2664        (-0.0159474 0.000622738 0)
0.267         (-0.0159654 0.00062452 0)
0.2676        (-0.0159833 0.000626304 0)
0.2682        (-0.0160013 0.000628091 0)
0.2688        (-0.0160192 0.00062988 0)
0.2694        (-0.0160371 0.000631672 0)
0.27          (-0.0160549 0.000633466 0)
0.2706        (-0.0160728 0.000635263 0)
0.2712        (-0.0160906 0.000637062 0)
0.2718        (-0.0161084 0.000638863 0)
0.2724        (-0.0161261 0.000640668 0)
0.273         (-0.0161439 0.000642474 0)
0.2736        (-0.0161616 0.000644283 0)
0.2742        (-0.0161793 0.000646095 0)
0.2748        (-0.016197 0.000647909 0)
0.2754        (-0.0162147 0.000649725 0)
0.276         (-0.0162324 0.000651544 0)
0.2766        (-0.01625 0.000653365 0)
0.2772        (-0.0162676 0.000655189 0)
0.2778        (-0.0162852 0.000657015 0)
0.2784        (-0.0163027 0.000658844 0)
0.279         (-0.0163203 0.000660675 0)
0.2796        (-0.0163378 0.000662509 0)
0.2802        (-0.0163553 0.000664345 0)
0.2808        (-0.0163728 0.000666184 0)
0.2814        (-0.0163903 0.000668025 0)
0.282         (-0.0164077 0.000669868 0)
0.2826        (-0.0164251 0.000671714 0)
0.2832        (-0.0164425 0.000673563 0)
0.2838        (-0.0164599 0.000675414 0)
0.2844        (-0.0164773 0.000677267 0)
0.285         (-0.0164946 0.000679123 0)
0.2856        (-0.016512 0.000680981 0)
0.2862        (-0.0165293 0.000682842 0)
0.2868        (-0.0165465 0.000684705 0)
0.2874        (-0.0165638 0.000686571 0)
0.288         (-0.0165811 0.000688439 0)
0.2886        (-0.0165983 0.00069031 0)
0.2892        (-0.0166155 0.000692183 0)
0.2898        (-0.0166327 0.000694058 0)
0.2904        (-0.0166498 0.000695936 0)
0.291         (-0.016667 0.000697817 0)
0.2916        (-0.0166841 0.0006997 0)
0.2922        (-0.0167012 0.000701585 0)
0.2928        (-0.0167183 0.000703473 0)
0.2934        (-0.0167354 0.000705363 0)
0.294         (-0.0167524 0.000707256 0)
0.2946        (-0.0167695 0.000709151 0)
0.2952        (-0.0167865 0.000711049 0)
0.2958        (-0.0168035 0.000712949 0)
0.2964        (-0.0168204 0.000714851 0)
0.297         (-0.0168374 0.000716757 0)
0.2976        (-0.0168543 0.000718664 0)
0.2982        (-0.0168712 0.000720574 0)
0.2988        (-0.0168881 0.000722486 0)
0.2994        (-0.016905 0.000724401 0)
0.3           (-0.0169219 0.000726319 0)
0.3006        (-0.0169387 0.000728238 0)
0.3012        (-0.0169555 0.000730161 0)
0.3018        (-0.0169723 0.000732085 0)
0.3024        (-0.0169891 0.000734012 0)
0.303         (-0.0170059 0.000735942 0)
0.3036        (-0.0170227 0.000737874 0)
0.3042        (-0.0170394 0.000739808 0)
0.3048        (-0.0170561 0.000741745 0)
0.3054        (-0.0170728 0.000743685 0)
0.306         (-0.0170895 0.000745627 0)
0.3066        (-0.0171061 0.000747571 0)
0.3072        (-0.0171228 0.000749518 0)
0.3078        (-0.0171394 0.000751467 0)
0.3084        (-0.017156 0.000753419 0)
0.309         (-0.0171726 0.000755373 0)
0.3096        (-0.0171892 0.000757329 0)
0.3102        (-0.0172057 0.000759288 0)
0.3108        (-0.0172222 0.00076125 0)
0.3114        (-0.0172387 0.000763213 0)
0.312         (-0.0172552 0.00076518 0)
0.3126        (-0.0172717 0.000767149 0)
0.3132        (-0.0172882 0.00076912 0)
0.3138        (-0.0173046 0.000771093 0)
0.3144        (-0.0173211 0.00077307 0)
0.315         (-0.0173375 0.000775048 0)
0.3156        (-0.0173539 0.000777029 0)
0.3162        (-0.0173702 0.000779013 0)
0.3168        (-0.0173866 0.000780999 0)
0.3174        (-0.0174029 0.000782987 0)
0.318         (-0.0174193 0.000784978 0)
0.3186        (-0.0174356 0.000786971 0)
0.3192        (-0.0174518 0.000788967 0)
0.3198        (-0.0174681 0.000790965 0)
0.3204        (-0.0174844 0.000792965 0)
0.321         (-0.0175006 0.000794968 0)
0.3216        (-0.0175168 0.000796974 0)
0.3222        (-0.017533 0.000798982 0)
0.3228        (-0.0175492 0.000800992 0)
0.3234        (-0.0175654 0.000803005 0)
0.324         (-0.0175815 0.00080502 0)
0.3246        (-0.0175977 0.000807038 0)
0.3252        (-0.0176138 0.000809058 0)
0.3258        (-0.0176299 0.00081108 0)
0.3264        (-0.017646 0.000813105 0)
0.327         (-0.017662 0.000815132 0)
0.3276        (-0.0176781 0.000817162 0)
0.3282        (-0.0176941 0.000819195 0)
0.3288        (-0.0177101 0.000821229 0)
0.3294        (-0.0177261 0.000823266 0)
0.33          (-0.0177421 0.000825306 0)
0.3306        (-0.0177581 0.000827348 0)
0.3312        (-0.017774 0.000829392 0)
0.3318        (-0.01779 0.000831439 0)
0.3324        (-0.0178059 0.000833489 0)
0.333         (-0.0178218 0.00083554 0)
0.3336        (-0.0178377 0.000837594 0)
0.3342        (-0.0178535 0.000839651 0)
0.3348        (-0.0178694 0.00084171 0)
0.3354        (-0.0178852 0.000843772 0)
0.336         (-0.0179011 0.000845835 0)
0.3366        (-0.0179169 0.000847902 0)
0.3372        (-0.0179327 0.00084997 0)
0.3378        (-0.0179484 0.000852042 0)
0.3384        (-0.0179642 0.000854115 0)
0.339         (-0.0179799 0.000856191 0)
0.3396        (-0.0179957 0.00085827 0)
0.3402        (-0.0180114 0.000860351 0)
0.3408        (-0.0180271 0.000862434 0)
0.3414        (-0.0180427 0.00086452 0)
0.342         (-0.0180584 0.000866608 0)
0.3426        (-0.018074 0.000868698 0)
0.3432        (-0.0180897 0.000870791 0)
0.3438        (-0.0181053 0.000872887 0)
0.3444        (-0.0181209 0.000874984 0)
0.345         (-0.0181365 0.000877085 0)
0.3456        (-0.018152 0.000879187 0)
0.3462        (-0.0181676 0.000881293 0)
0.3468        (-0.0181831 0.0008834 0)
0.3474        (-0.0181986 0.00088551 0)
0.348         (-0.0182142 0.000887622 0)
0.3486        (-0.0182296 0.000889737 0)
0.3492        (-0.0182451 0.000891854 0)
0.3498        (-0.0182606 0.000893974 0)
0.3504        (-0.018276 0.000896096 0)
0.351         (-0.0182915 0.00089822 0)
0.3516        (-0.0183069 0.000900347 0)
0.3522        (-0.0183223 0.000902476 0)
0.3528        (-0.0183376 0.000904608 0)
0.3534        (-0.018353 0.000906742 0)
0.354         (-0.0183684 0.000908879 0)
0.3546        (-0.0183837 0.000911018 0)
0.3552        (-0.018399 0.000913159 0)
0.3558        (-0.0184143 0.000915303 0)
0.3564        (-0.0184296 0.000917449 0)
0.357         (-0.0184449 0.000919597 0)
0.3576        (-0.0184602 0.000921748 0)
0.3582        (-0.0184754 0.000923902 0)
0.3588        (-0.0184907 0.000926057 0)
0.3594        (-0.0185059 0.000928216 0)
0.36          (-0.0185211 0.000930376 0)
0.3606        (-0.0185363 0.000932539 0)
0.3612        (-0.0185515 0.000934705 0)
0.3618        (-0.0185666 0.000936872 0)
0.3624        (-0.0185818 0.000939043 0)
0.363         (-0.0185969 0.000941215 0)
0.3636        (-0.018612 0.00094339 0)
0.3642        (-0.0186271 0.000945568 0)
0.3648        (-0.0186422 0.000947748 0)
0.3654        (-0.0186573 0.00094993 0)
0.366         (-0.0186723 0.000952114 0)
0.3666        (-0.0186874 0.000954302 0)
0.3672        (-0.0187024 0.000956491 0)
0.3678        (-0.0187174 0.000958683 0)
0.3684        (-0.0187324 0.000960877 0)
0.369         (-0.0187474 0.000963074 0)
0.3696        (-0.0187624 0.000965273 0)
0.3702        (-0.0187773 0.000967474 0)
0.3708        (-0.0187923 0.000969678 0)
0.3714        (-0.0188072 0.000971884 0)
0.372         (-0.0188221 0.000974093 0)
0.3726        (-0.018837 0.000976304 0)
0.3732        (-0.0188519 0.000978517 0)
0.3738        (-0.0188668 0.000980733 0)
0.3744        (-0.0188816 0.000982951 0)
0.375         (-0.0188965 0.000985172 0)
0.3756        (-0.0189113 0.000987395 0)
0.3762        (-0.0189261 0.00098962 0)
0.3768        (-0.0189409 0.000991848 0)
0.3774        (-0.0189557 0.000994078 0)
0.378         (-0.0189705 0.00099631 0)
0.3786        (-0.0189853 0.000998545 0)
0.3792        (-0.019 0.00100078 0)
0.3798        (-0.0190148 0.00100302 0)
0.3804        (-0.0190295 0.00100526 0)
0.381         (-0.0190442 0.00100751 0)
0.3816        (-0.0190589 0.00100976 0)
0.3822        (-0.0190736 0.001012 0)
0.3828        (-0.0190882 0.00101426 0)
0.3834        (-0.0191029 0.00101651 0)
0.384         (-0.0191175 0.00101877 0)
0.3846        (-0.0191321 0.00102103 0)
0.3852        (-0.0191467 0.00102329 0)
0.3858        (-0.0191613 0.00102555 0)
0.3864        (-0.0191759 0.00102782 0)
0.387         (-0.0191905 0.00103008 0)
0.3876        (-0.0192051 0.00103235 0)
0.3882        (-0.0192196 0.00103463 0)
0.3888        (-0.0192341 0.0010369 0)
0.3894        (-0.0192486 0.00103918 0)
0.39          (-0.0192631 0.00104146 0)
0.3906        (-0.0192776 0.00104374 0)
0.3912        (-0.0192921 0.00104603 0)
0.3918        (-0.0193066 0.00104832 0)
0.3924        (-0.019321 0.00105061 0)
0.393         (-0.0193355 0.0010529 0)
0.3936        (-0.0193499 0.00105519 0)
0.3942        (-0.0193643 0.00105749 0)
0.3948        (-0.0193787 0.00105979 0)
0.3954        (-0.0193931 0.00106209 0)
0.396         (-0.0194075 0.00106439 0)
0.3966        (-0.0194218 0.0010667 0)
0.3972        (-0.0194362 0.00106901 0)
0.3978        (-0.0194505 0.00107132 0)
0.3984        (-0.0194648 0.00107363 0)
0.399         (-0.0194791 0.00107595 0)
0.3996        (-0.0194934 0.00107826 0)
0.4002        (-0.0195077 0.00108059 0)
0.4008        (-0.019522 0.00108291 0)
0.4014        (-0.0195362 0.00108523 0)
0.402         (-0.0195505 0.00108756 0)
0.4026        (-0.0195647 0.00108989 0)
0.4032        (-0.0195789 0.00109222 0)
0.4038        (-0.0195931 0.00109456 0)
0.4044        (-0.0196073 0.00109689 0)
0.405         (-0.0196215 0.00109923 0)
0.4056        (-0.0196356 0.00110157 0)
0.4062        (-0.0196498 0.00110392 0)
0.4068        (-0.0196639 0.00110626 0)
0.4074        (-0.0196781 0.00110861 0)
0.408         (-0.0196922 0.00111096 0)
0.4086        (-0.0197063 0.00111332 0)
0.4092        (-0.0197204 0.00111567 0)
0.4098        (-0.0197344 0.00111803 0)
0.4104        (-0.0197485 0.00112039 0)
0.411         (-0.0197626 0.00112275 0)
0.4116        (-0.0197766 0.00112512 0)
0.4122        (-0.0197906 0.00112749 0)
0.4128        (-0.0198046 0.00112986 0)
0.4134        (-0.0198187 0.00113223 0)
0.414         (-0.0198326 0.0011346 0)
0.4146        (-0.0198466 0.00113698 0)
0.4152        (-0.0198606 0.00113936 0)
0.4158        (-0.0198745 0.00114174 0)
0.4164        (-0.0198885 0.00114413 0)
0.417         (-0.0199024 0.00114651 0)
0.4176        (-0.0199163 0.0011489 0)
0.4182        (-0.0199302 0.00115129 0)
0.4188        (-0.0199441 0.00115368 0)
0.4194        (-0.019958 0.00115608 0)
0.42          (-0.0199719 0.00115848 0)
0.4206        (-0.0199857 0.00116088 0)
0.4212        (-0.0199996 0.00116328 0)
0.4218        (-0.0200134 0.00116569 0)
0.4224        (-0.0200272 0.00116809 0)
0.423         (-0.020041 0.0011705 0)
0.4236        (-0.0200548 0.00117291 0)
0.4242        (-0.0200686 0.00117533 0)
0.4248        (-0.0200824 0.00117774 0)
0.4254        (-0.0200961 0.00118016 0)
0.426         (-0.0201099 0.00118258 0)
0.4266        (-0.0201236 0.00118501 0)
0.4272        (-0.0201373 0.00118743 0)
0.4278        (-0.0201511 0.00118986 0)
0.4284        (-0.0201648 0.00119229 0)
0.429         (-0.0201784 0.00119473 0)
0.4296        (-0.0201921 0.00119716 0)
0.4302        (-0.0202058 0.0011996 0)
0.4308        (-0.0202194 0.00120204 0)
0.4314        (-0.0202331 0.00120448 0)
0.432         (-0.0202467 0.00120692 0)
0.4326        (-0.0202603 0.00120937 0)
0.4332        (-0.0202739 0.00121182 0)
0.4338        (-0.0202875 0.00121427 0)
0.4344        (-0.0203011 0.00121673 0)
0.435         (-0.0203147 0.00121918 0)
0.4356        (-0.0203282 0.00122164 0)
0.4362        (-0.0203418 0.0012241 0)
0.4368        (-0.0203553 0.00122656 0)
0.4374        (-0.0203688 0.00122903 0)
0.438         (-0.0203824 0.0012315 0)
0.4386        (-0.0203959 0.00123397 0)
0.4392        (-0.0204093 0.00123644 0)