/*--------------------------------*- C++ -*----------------------------------*\
| =========                 |                                                 |
| \\      /  F ield         | OpenFOAM: The Open Source CFD Toolbox           |
|  \\    /   O peration     | Version:  2406                                  |
|   \\  /    A nd           | Website:  www.openfoam.com                      |
|    \\/     M anipulation  |                                                 |
\*---------------------------------------------------------------------------*/
FoamFile
{
    version     2.0;
    format      ascii;
    arch        "LSB;label=32;scalar=64";
    class       volScalarField;
    location    "24.9";
    object      p;
}
// * * * * * * * * * * * * * * * * * * * * * * * * * * * * * * * * * * * * * //

dimensions      [0 2 -2 0 0 0 0];

internalField   nonuniform List<scalar> 
40000
(
5.28159e-09
1.18206e-05
2.23127e-05
3.08378e-05
3.80443e-05
4.39947e-05
4.84872e-05
5.13108e-05
5.22581e-05
5.10986e-05
4.75712e-05
4.13835e-05
3.22116e-05
1.96975e-05
3.44868e-06
-1.69639e-05
-4.20072e-05
-7.21867e-05
-0.000108049
-0.00015018
-0.000199209
-0.000255806
-0.000320688
-0.000394611
-0.000478381
-0.000572848
-0.000678908
-0.000797508
-0.000929645
-0.00107637
-0.00123878
-0.00141805
-0.00161539
-0.0018321
-0.00206953
-0.00232913
-0.00261239
-0.00292092
-0.0032564
-0.00362059
-0.00401536
-0.00444267
-0.00490456
-0.00540318
-0.00594073
-0.00651952
-0.00714189
-0.00781026
-0.00852704
-0.00929466
-0.0101155
-0.0109919
-0.0119262
-0.0129203
-0.0139762
-0.0150955
-0.0162796
-0.0175295
-0.0188458
-0.0202286
-0.0216777
-0.0231922
-0.0247706
-0.0264108
-0.0281103
-0.0298658
-0.0316735
-0.033529
-0.0354275
-0.0373638
-0.0393322
-0.0413272
-0.0433427
-0.0453729
-0.047412
-0.0494546
-0.0514952
-0.0535289
-0.0555513
-0.057558
-0.0595453
-0.0615095
-0.0634473
-0.0653555
-0.0672307
-0.0690695
-0.0708681
-0.0726224
-0.0743276
-0.0759782
-0.0775682
-0.0790906
-0.0805376
-0.0819005
-0.0831699
-0.0843356
-0.0853866
-0.0863115
-0.0870981
-0.0877338
-0.00124899
-0.00123285
-0.00121816
-0.00120575
-0.00119472
-0.00118494
-0.00117662
-0.00117
-0.00116528
-0.00116271
-0.00116253
-0.00116506
-0.00117062
-0.00117957
-0.00119231
-0.00120928
-0.00123094
-0.00125782
-0.00129045
-0.00132944
-0.00137542
-0.00142907
-0.0014911
-0.00156229
-0.00164345
-0.00173543
-0.00183913
-0.0019555
-0.00208554
-0.00223031
-0.00239091
-0.00256848
-0.00276426
-0.00297952
-0.0032156
-0.00347393
-0.00375599
-0.00406336
-0.00439768
-0.00476069
-0.00515422
-0.00558019
-0.0060406
-0.00653754
-0.00707319
-0.00764978
-0.00826962
-0.00893506
-0.00964847
-0.0104122
-0.0112287
-0.0121001
-0.0130287
-0.0140165
-0.0150653
-0.0161768
-0.0173523
-0.0185927
-0.0198988
-0.0212706
-0.0227078
-0.0242095
-0.0257744
-0.0274005
-0.0290851
-0.0308251
-0.0326167
-0.0344559
-0.0363377
-0.0382572
-0.0402089
-0.0421872
-0.0441865
-0.0462009
-0.0482248
-0.050253
-0.0522801
-0.0543014
-0.0563125
-0.0583091
-0.0602875
-0.0622441
-0.0641757
-0.0660789
-0.0679504
-0.0697867
-0.071584
-0.073338
-0.0750439
-0.0766961
-0.0782885
-0.0798138
-0.0812643
-0.0826312
-0.0839048
-0.0850749
-0.0861303
-0.0870595
-0.0878501
-0.0884895
-0.0023521
-0.00233206
-0.00231359
-0.00229766
-0.00228313
-0.00226981
-0.00225795
-0.00224778
-0.00223951
-0.00223338
-0.00222965
-0.00222863
-0.00223064
-0.00223605
-0.00224527
-0.00225872
-0.00227689
-0.00230029
-0.00232948
-0.00236505
-0.00240765
-0.00245796
-0.0025167
-0.00258466
-0.00266263
-0.0027515
-0.00285215
-0.00296555
-0.0030927
-0.00323464
-0.00339248
-0.00356738
-0.00376054
-0.00397324
-0.0042068
-0.00446263
-0.0047422
-0.00504705
-0.0053788
-0.00573915
-0.00612991
-0.00655294
-0.0070102
-0.00750373
-0.00803567
-0.0086082
-0.00922357
-0.00988408
-0.0105921
-0.0113498
-0.0121597
-0.0130239
-0.0139446
-0.0149237
-0.0159632
-0.0170646
-0.0182292
-0.019458
-0.0207516
-0.0221103
-0.0235336
-0.0250209
-0.0265706
-0.028181
-0.0298495
-0.031573
-0.033348
-0.0351702
-0.0370353
-0.0389381
-0.0408734
-0.0428358
-0.0448196
-0.0468193
-0.0488294
-0.0508446
-0.0528598
-0.0548704
-0.0568718
-0.05886
-0.0608312
-0.0627819
-0.0647087
-0.0666083
-0.0684773
-0.0703122
-0.072109
-0.0738635
-0.0755707
-0.077225
-0.07882
-0.0803486
-0.0818028
-0.0831736
-0.0844514
-0.0856258
-0.0866856
-0.0876189
-0.0884134
-0.0890562
-0.00331228
-0.00328881
-0.00326698
-0.00324789
-0.0032302
-0.00321368
-0.00319857
-0.00318512
-0.00317354
-0.00316406
-0.00315696
-0.00315253
-0.0031511
-0.00315305
-0.00315876
-0.00316868
-0.00318329
-0.00320311
-0.00322868
-0.00326063
-0.00329958
-0.00334622
-0.00340129
-0.00346557
-0.00353986
-0.00362505
-0.00372203
-0.00383178
-0.00395528
-0.00409359
-0.00424782
-0.00441911
-0.00460867
-0.00481776
-0.0050477
-0.00529988
-0.00557574
-0.00587681
-0.00620468
-0.00656101
-0.00694757
-0.00736618
-0.00781876
-0.00830732
-0.00883391
-0.00940069
-0.0100099
-0.0106637
-0.0113644
-0.0121143
-0.0129156
-0.0137706
-0.0146814
-0.0156499
-0.016678
-0.0177673
-0.0189191
-0.0201343
-0.0214137
-0.0227574
-0.0241652
-0.0256364
-0.0271697
-0.0287632
-0.0304145
-0.0321207
-0.0338783
-0.0356833
-0.0375319
-0.039418
-0.0413372
-0.0432842
-0.0452535
-0.0472395
-0.049237
-0.0512406
-0.0532454
-0.0552466
-0.05724
-0.0592213
-0.0611869
-0.0631331
-0.0650565
-0.0669538
-0.0688216
-0.0706561
-0.0724534
-0.0742091
-0.0759183
-0.0775751
-0.0791733
-0.0807055
-0.0821635
-0.0835385
-0.0848207
-0.0859995
-0.0870636
-0.088001
-0.0887993
-0.0894454
-0.00413501
-0.00410856
-0.00408378
-0.00406191
-0.00404141
-0.00402201
-0.00400397
-0.00398753
-0.0039729
-0.00396032
-0.00395005
-0.00394239
-0.00393767
-0.00393625
-0.00393852
-0.00394494
-0.00395597
-0.00397214
-0.00399399
-0.00402214
-0.00405723
-0.00409994
-0.00415101
-0.00421122
-0.0042814
-0.00436241
-0.00445516
-0.00456062
-0.0046798
-0.00481373
-0.00496354
-0.00513036
-0.0053154
-0.00551991
-0.0057452
-0.00599264
-0.00626366
-0.00655976
-0.0068825
-0.00723353
-0.00761456
-0.00802738
-0.00847386
-0.00895597
-0.00947571
-0.0100352
-0.0106366
-0.011282
-0.0119738
-0.0127141
-0.0135052
-0.0143493
-0.0152484
-0.0162045
-0.0172195
-0.0182949
-0.019432
-0.020632
-0.0218954
-0.0232226
-0.0246135
-0.0260672
-0.0275827
-0.0291582
-0.0307916
-0.0324798
-0.0342197
-0.0360072
-0.0378383
-0.0397081
-0.0416117
-0.0435439
-0.0454993
-0.0474726
-0.0494585
-0.0514517
-0.0534474
-0.0554408
-0.0574275
-0.0594035
-0.0613648
-0.0633079
-0.0652293
-0.0671256
-0.0689931
-0.0708283
-0.0726271
-0.0743849
-0.0760967
-0.0777566
-0.0793588
-0.0808948
-0.0823571
-0.0837366
-0.0850234
-0.0862068
-0.0872753
-0.088217
-0.0890191
-0.0896686
-0.00482756
-0.00479857
-0.00477127
-0.00474698
-0.00472403
-0.00470209
-0.00468144
-0.00466231
-0.00464491
-0.00462948
-0.00461627
-0.00460558
-0.00459773
-0.00459308
-0.00459202
-0.004595
-0.00460248
-0.00461498
-0.00463305
-0.00465729
-0.00468836
-0.00472693
-0.00477374
-0.00482957
-0.00489525
-0.00497164
-0.00505967
-0.00516029
-0.00527451
-0.0054034
-0.00554804
-0.00570959
-0.00588925
-0.00608826
-0.00630793
-0.0065496
-0.00681471
-0.00710471
-0.00742116
-0.00776566
-0.0081399
-0.00854562
-0.00898467
-0.00945895
-0.00997043
-0.0105212
-0.0111133
-0.0117488
-0.0124301
-0.0131593
-0.0139386
-0.0147701
-0.0156559
-0.0165979
-0.0175981
-0.018658
-0.0197789
-0.020962
-0.022208
-0.0235172
-0.0248896
-0.0263246
-0.0278212
-0.0293777
-0.0309921
-0.0326616
-0.034383
-0.0361528
-0.0379666
-0.03982
-0.0417082
-0.043626
-0.0455682
-0.0475295
-0.0495046
-0.0514885
-0.0534762
-0.0554629
-0.0574443
-0.0594162
-0.0613747
-0.063316
-0.0652366
-0.0671331
-0.0690016
-0.0708386
-0.0726398
-0.0744006
-0.0761159
-0.0777799
-0.079386
-0.0809267
-0.0823938
-0.0837783
-0.0850701
-0.0862584
-0.0873317
-0.0882779
-0.089084
-0.089737
-0.00539854
-0.00536743
-0.00533802
-0.00531168
-0.00528662
-0.00526248
-0.00523953
-0.00521801
-0.00519813
-0.00518011
-0.00516421
-0.00515071
-0.00513992
-0.00513221
-0.00512796
-0.0051276
-0.00513159
-0.00514045
-0.00515473
-0.00517501
-0.00520195
-0.00523623
-0.00527857
-0.00532977
-0.00539063
-0.00546204
-0.00554491
-0.0056402
-0.00574892
-0.00587214
-0.00601094
-0.00616648
-0.00633996
-0.00653262
-0.00674574
-0.00698069
-0.00723885
-0.00752169
-0.00783072
-0.00816753
-0.00853378
-0.00893117
-0.0093615
-0.00982663
-0.0103285
-0.0108691
-0.0114505
-0.0120748
-0.0127442
-0.0134607
-0.0142266
-0.015044
-0.015915
-0.0168414
-0.0178252
-0.018868
-0.0199712
-0.0211359
-0.022363
-0.0236528
-0.0250055
-0.0264205
-0.0278969
-0.0294334
-0.0310278
-0.0326778
-0.0343802
-0.0361316
-0.0379279
-0.0397648
-0.0416376
-0.0435412
-0.0454706
-0.0474204
-0.0493856
-0.051361
-0.0533417
-0.0553229
-0.0573001
-0.0592691
-0.0612259
-0.0631667
-0.0650878
-0.0669856
-0.0688564
-0.0706962
-0.0725009
-0.0742657
-0.0759854
-0.0776541
-0.0792652
-0.0808113
-0.0822838
-0.0836738
-0.0849711
-0.0861648
-0.0872434
-0.0881944
-0.0890049
-0.0896615
-0.00585742
-0.0058246
-0.00579345
-0.00576541
-0.00573857
-0.00571256
-0.00568763
-0.00566403
-0.00564195
-0.00562162
-0.00560328
-0.0055872
-0.00557369
-0.00556311
-0.00555582
-0.00555226
-0.00555287
-0.00555816
-0.00556867
-0.00558499
-0.00560776
-0.00563764
-0.00567538
-0.00572173
-0.00577754
-0.00584365
-0.005921
-0.00601054
-0.00611328
-0.00623027
-0.00636263
-0.00651149
-0.00667806
-0.00686356
-0.00706929
-0.00729659
-0.00754685
-0.0078215
-0.00812205
-0.00845006
-0.00880715
-0.009195
-0.00961538
-0.0100701
-0.0105611
-0.0110902
-0.0116596
-0.0122712
-0.0129272
-0.0136297
-0.0143808
-0.0151826
-0.0160372
-0.0169466
-0.0179126
-0.0189368
-0.0200207
-0.0211656
-0.0223723
-0.0236413
-0.0249728
-0.0263666
-0.0278217
-0.0293369
-0.0309105
-0.03254
-0.0342227
-0.0359551
-0.0377334
-0.0395535
-0.0414107
-0.0433002
-0.0452169
-0.0471558
-0.0491115
-0.0510791
-0.0530536
-0.0550301
-0.0570041
-0.0589713
-0.0609276
-0.0628691
-0.0647919
-0.0666923
-0.0685664
-0.0704103
-0.0722195
-0.0739893
-0.0757144
-0.0773889
-0.079006
-0.0805581
-0.0820369
-0.0834331
-0.0847366
-0.0859363
-0.0870206
-0.0879769
-0.0887922
-0.0894529
-0.0062141
-0.00617995
-0.00614743
-0.00611802
-0.00608973
-0.00606215
-0.00603555
-0.00601017
-0.00598619
-0.00596382
-0.00594329
-0.00592488
-0.00590888
-0.00589563
-0.0058855
-0.00587889
-0.00587626
-0.00587809
-0.00588491
-0.0058973
-0.00591589
-0.00594134
-0.00597438
-0.00601577
-0.00606632
-0.00612691
-0.00619844
-0.00628187
-0.00637821
-0.00648852
-0.00661389
-0.00675547
-0.00691445
-0.00709207
-0.00728962
-0.00750842
-0.00774985
-0.00801535
-0.0083064
-0.00862454
-0.00897136
-0.00934852
-0.00975775
-0.0102008
-0.0106796
-0.011196
-0.011752
-0.0123496
-0.0129908
-0.0136779
-0.0144128
-0.0151976
-0.0160344
-0.0169253
-0.0178719
-0.0188761
-0.0199393
-0.0210628
-0.0222477
-0.0234945
-0.0248035
-0.0261746
-0.0276071
-0.0291
-0.0306515
-0.0322596
-0.0339215
-0.0356342
-0.037394
-0.0391967
-0.0410381
-0.0429133
-0.0448174
-0.0467453
-0.048692
-0.0506522
-0.0526211
-0.0545937
-0.0565654
-0.0585318
-0.0604887
-0.0624319
-0.0643575
-0.0662617
-0.0681404
-0.0699894
-0.0718044
-0.0735805
-0.0753121
-0.0769934
-0.0786174
-0.0801766
-0.0816625
-0.0830658
-0.0843763
-0.0855828
-0.0866735
-0.0876357
-0.0884563
-0.0891214
-0.00647865
-0.00644352
-0.00640997
-0.0063795
-0.00635006
-0.00632122
-0.00629325
-0.00626637
-0.00624076
-0.00621662
-0.00619418
-0.00617369
-0.00615544
-0.00613974
-0.00612697
-0.00611751
-0.00611179
-0.00611029
-0.00611353
-0.00612208
-0.00613654
-0.00615757
-0.00618588
-0.00622223
-0.00626742
-0.0063223
-0.00638779
-0.00646484
-0.00655444
-0.00665765
-0.00677557
-0.00690934
-0.00706014
-0.00722923
-0.00741786
-0.00762737
-0.00785913
-0.00811457
-0.00839514
-0.00870238
-0.00903786
-0.00940321
-0.00980012
-0.0102303
-0.0106957
-0.0111981
-0.0117394
-0.0123216
-0.0129468
-0.013617
-0.0143343
-0.0151007
-0.0159183
-0.0167891
-0.017715
-0.0186976
-0.0197387
-0.0208394
-0.0220009
-0.0232241
-0.0245091
-0.0258562
-0.0272647
-0.0287338
-0.0302621
-0.0318476
-0.0334878
-0.0351798
-0.0369201
-0.0387049
-0.0405299
-0.0423904
-0.0442817
-0.0461987
-0.0481363
-0.0500895
-0.0520532
-0.0540225
-0.0559927
-0.0579591
-0.0599175
-0.0618635
-0.0637931
-0.0657022
-0.0675867
-0.0694422
-0.0712642
-0.0730477
-0.0747871
-0.0764763
-0.0781084
-0.0796758
-0.0811699
-0.0825812
-0.0838996
-0.0851137
-0.0862115
-0.0871804
-0.0880069
-0.088677
-0.00666101
-0.00662522
-0.00659095
-0.00655971
-0.00652941
-0.0064996
-0.00647053
-0.00644243
-0.00641547
-0.00638984
-0.00636574
-0.00634342
-0.00632315
-0.00630525
-0.00629005
-0.00627793
-0.00626932
-0.00626466
-0.00626447
-0.00626929
-0.00627971
-0.00629637
-0.00631998
-0.00635127
-0.00639103
-0.00644011
-0.00649941
-0.00656986
-0.00665246
-0.00674825
-0.00685833
-0.00698384
-0.00712595
-0.0072859
-0.00746497
-0.00766448
-0.00788579
-0.00813031
-0.0083995
-0.00869487
-0.00901797
-0.00937043
-0.0097539
-0.0101701
-0.0106208
-0.0111079
-0.0116333
-0.0121988
-0.0128066
-0.0134586
-0.0141569
-0.0149035
-0.0157004
-0.0165498
-0.0174534
-0.018413
-0.0194303
-0.0205067
-0.0216435
-0.0228414
-0.024101
-0.0254225
-0.0268056
-0.0282496
-0.0297533
-0.0313149
-0.0329321
-0.0346024
-0.0363223
-0.0380882
-0.039896
-0.0417413
-0.0436193
-0.0455251
-0.0474537
-0.0493999
-0.0513587
-0.0533252
-0.0552943
-0.0572615
-0.0592222
-0.061172
-0.0631067
-0.0650219
-0.0669134
-0.0687766
-0.0706069
-0.0723991
-0.0741476
-0.075846
-0.0774875
-0.0790643
-0.0805677
-0.0819882
-0.0833155
-0.0845381
-0.0856441
-0.0866204
-0.0874535
-0.0881293
-0.0067708
-0.00673465
-0.00669995
-0.00666821
-0.0066373
-0.00660678
-0.00657688
-0.00654783
-0.00651978
-0.00649291
-0.0064674
-0.00644351
-0.00642148
-0.0064016
-0.00638421
-0.00636966
-0.00635835
-0.00635073
-0.00634727
-0.00634851
-0.00635502
-0.00636743
-0.00638641
-0.00641268
-0.00644701
-0.00649025
-0.00654326
-0.00660697
-0.00668238
-0.00677051
-0.00687245
-0.00698932
-0.0071223
-0.00727263
-0.00744156
-0.00763042
-0.00784056
-0.00807338
-0.00833034
-0.00861293
-0.0089227
-0.00926123
-0.00963017
-0.0100312
-0.0104661
-0.0109367
-0.0114449
-0.0119924
-0.0125814
-0.0132139
-0.0138917
-0.0146171
-0.015392
-0.0162184
-0.0170982
-0.0180333
-0.0190254
-0.020076
-0.0211863
-0.0223575
-0.0235901
-0.0248845
-0.0262407
-0.027658
-0.0291356
-0.0306719
-0.0322649
-0.033912
-0.0356104
-0.0373564
-0.0391462
-0.0409754
-0.0428395
-0.0447337
-0.0466529
-0.0485921
-0.0505461
-0.0525098
-0.0544784
-0.056447
-0.0584108
-0.0603653
-0.062306
-0.0642285
-0.0661282
-0.0680005
-0.0698404
-0.0716427
-0.0734016
-0.0751107
-0.0767629
-0.0783503
-0.0798643
-0.0812952
-0.0826326
-0.0838649
-0.0849799
-0.0859646
-0.0868052
-0.0874873
-0.00681719
-0.00678095
-0.00674608
-0.00671407
-0.0066828
-0.00665181
-0.00662134
-0.00659158
-0.00656269
-0.00653482
-0.00650816
-0.00648293
-0.00645938
-0.00643777
-0.00641842
-0.00640166
-0.00638788
-0.0063775
-0.00637098
-0.00636882
-0.00637159
-0.00637988
-0.00639434
-0.00641568
-0.00644465
-0.00648206
-0.00652876
-0.00658568
-0.00665378
-0.00673408
-0.00682764
-0.00693559
-0.0070591
-0.00719938
-0.00735768
-0.00753533
-0.00773367
-0.0079541
-0.00819805
-0.00846702
-0.00876253
-0.00908616
-0.00943953
-0.00982433
-0.0102423
-0.0106952
-0.0111848
-0.0117132
-0.0122821
-0.0128936
-0.0135497
-0.0142524
-0.0150037
-0.0158057
-0.0166603
-0.0175694
-0.0185347
-0.0195579
-0.0206402
-0.021783
-0.022987
-0.0242527
-0.0255803
-0.0269694
-0.0284193
-0.0299287
-0.031496
-0.0331187
-0.0347941
-0.036519
-0.0382896
-0.0401019
-0.0419513
-0.0438331
-0.0457425
-0.0476743
-0.0496234
-0.0515846
-0.0535529
-0.0555233
-0.0574909
-0.0594509
-0.0613986
-0.0633295
-0.0652386
-0.0671212
-0.0689721
-0.070786
-0.0725567
-0.0742779
-0.0759422
-0.0775418
-0.0790678
-0.0805104
-0.081859
-0.0831022
-0.0842274
-0.0852214
-0.0860704
-0.0867597
-0.00680877
-0.00677267
-0.00673786
-0.00670581
-0.0066744
-0.00664317
-0.00661234
-0.00658211
-0.0065526
-0.00652398
-0.00649641
-0.00647009
-0.00644525
-0.00642214
-0.00640107
-0.00638234
-0.00636632
-0.0063534
-0.00634403
-0.00633868
-0.0063379
-0.00634224
-0.00635235
-0.00636889
-0.0063926
-0.00642426
-0.0064647
-0.00651483
-0.00657558
-0.00664795
-0.006733
-0.00683183
-0.00694559
-0.00707548
-0.00722277
-0.00738874
-0.00757473
-0.00778214
-0.0080124
-0.00826697
-0.00854738
-0.0088552
-0.00919203
-0.00955953
-0.00995942
-0.0103934
-0.0108634
-0.0113712
-0.0119188
-0.012508
-0.013141
-0.0138196
-0.0145459
-0.0153221
-0.0161499
-0.0170314
-0.0179683
-0.0189625
-0.0200152
-0.021128
-0.0223017
-0.023537
-0.0248343
-0.0261935
-0.0276141
-0.0290951
-0.030635
-0.0322317
-0.0338827
-0.0355851
-0.0373353
-0.0391294
-0.0409632
-0.0428319
-0.0447307
-0.0466547
-0.0485986
-0.0505572
-0.0525253
-0.0544979
-0.0564698
-0.058436
-0.0603917
-0.0623319
-0.0642517
-0.0661459
-0.0680092
-0.069836
-0.0716202
-0.073355
-0.075033
-0.0766462
-0.0781856
-0.0796414
-0.0810027
-0.0822579
-0.0833945
-0.0843991
-0.0852574
-0.0859548
-0.00675349
-0.00671775
-0.0066832
-0.0066513
-0.00661996
-0.00658869
-0.00655771
-0.00652721
-0.00649732
-0.00646816
-0.00643989
-0.00641271
-0.00638681
-0.00636245
-0.00633989
-0.00631942
-0.00630139
-0.00628618
-0.00627419
-0.00626588
-0.00626175
-0.00626236
-0.0062683
-0.00628022
-0.00629882
-0.00632486
-0.00635914
-0.00640254
-0.00645596
-0.0065204
-0.00659686
-0.00668645
-0.00679028
-0.00690956
-0.00704551
-0.00719943
-0.00737263
-0.00756649
-0.00778244
-0.00802194
-0.00828649
-0.00857765
-0.00889703
-0.00924625
-0.00962702
-0.0100411
-0.0104902
-0.0109763
-0.0115012
-0.0120668
-0.0126752
-0.0133284
-0.0140283
-0.014777
-0.0155766
-0.0164289
-0.017336
-0.0182995
-0.019321
-0.0204021
-0.0215438
-0.022747
-0.0240123
-0.0253399
-0.0267295
-0.0281802
-0.029691
-0.0312601
-0.0328852
-0.0345636
-0.0362919
-0.0380666
-0.0398835
-0.0417381
-0.0436257
-0.0455411
-0.0474794
-0.0494351
-0.0514031
-0.053378
-0.0553547
-0.0573278
-0.0592922
-0.0612428
-0.0631743
-0.0650814
-0.0669586
-0.0687999
-0.0705989
-0.0723489
-0.0740422
-0.0756706
-0.077225
-0.0786954
-0.0800708
-0.0813395
-0.0824888
-0.083505
-0.0843739
-0.0850803
-0.00665866
-0.00662344
-0.00658934
-0.00655777
-0.00652666
-0.00649553
-0.0064646
-0.00643403
-0.00640395
-0.00637446
-0.00634571
-0.00631788
-0.00629115
-0.00626575
-0.00624193
-0.00621997
-0.00620017
-0.00618289
-0.00616852
-0.00615748
-0.00615026
-0.00614736
-0.00614935
-0.00615686
-0.00617054
-0.00619114
-0.00621941
-0.0062562
-0.00630239
-0.00635893
-0.00642683
-0.00650713
-0.00660095
-0.00670945
-0.00683386
-0.00697543
-0.00713547
-0.00731536
-0.00751649
-0.00774031
-0.00798834
-0.0082621
-0.00856318
-0.00889321
-0.00925388
-0.0096469
-0.0100741
-0.0105372
-0.0110382
-0.011579
-0.0121615
-0.0127877
-0.0134598
-0.0141797
-0.0149495
-0.0157711
-0.0166467
-0.0175779
-0.0185666
-0.0196142
-0.0207222
-0.0218916
-0.0231232
-0.0244174
-0.0257741
-0.0271929
-0.0286729
-0.0302126
-0.0318101
-0.0334628
-0.0351679
-0.0369217
-0.0387205
-0.0405598
-0.0424351
-0.0443413
-0.0462733
-0.0482258
-0.0501935
-0.0521709
-0.0541525
-0.056133
-0.0581068
-0.0600687
-0.0620131
-0.0639344
-0.0658267
-0.067684
-0.0694995
-0.0712662
-0.0729765
-0.0746217
-0.0761927
-0.0776793
-0.0790704
-0.080354
-0.0815173
-0.0825465
-0.0834269
-0.0841435
-0.00653086
-0.00649633
-0.00646283
-0.00643174
-0.00640101
-0.00637019
-0.00633947
-0.00630901
-0.00627892
-0.00624928
-0.00622025
-0.00619198
-0.00616463
-0.00613842
-0.00611356
-0.00609033
-0.006069
-0.0060499
-0.00603339
-0.00601988
-0.00600979
-0.00600363
-0.00600192
-0.00600525
-0.00601425
-0.00602961
-0.00605207
-0.00608243
-0.00612154
-0.00617031
-0.00622971
-0.00630076
-0.00638456
-0.00648222
-0.00659495
-0.00672398
-0.00687061
-0.00703617
-0.00722207
-0.00742973
-0.00766064
-0.00791633
-0.00819837
-0.00850839
-0.00884804
-0.00921904
-0.00962318
-0.0100622
-0.0105381
-0.0110527
-0.0116081
-0.0122061
-0.0128488
-0.0135384
-0.0142769
-0.0150664
-0.0159088
-0.0168062
-0.0177603
-0.0187729
-0.0198455
-0.0209794
-0.0221754
-0.0234344
-0.0247565
-0.0261415
-0.0275889
-0.0290974
-0.0306655
-0.032291
-0.033971
-0.0357026
-0.0374818
-0.0393046
-0.0411665
-0.0430625
-0.0449876
-0.0469364
-0.0489035
-0.0508832
-0.0528701
-0.0548583
-0.0568423
-0.0588163
-0.0607746
-0.0627112
-0.06462
-0.0664946
-0.0683282
-0.0701134
-0.0718422
-0.0735059
-0.0750952
-0.0765996
-0.0780079
-0.079308
-0.0804867
-0.0815301
-0.0824235
-0.0831512
-0.00637601
-0.0063423
-0.00630954
-0.00627905
-0.00624885
-0.00621849
-0.00618813
-0.00615794
-0.00612799
-0.00609839
-0.00606926
-0.00604073
-0.00601296
-0.00598613
-0.00596046
-0.00593618
-0.00591355
-0.00589287
-0.00587447
-0.00585873
-0.00584605
-0.00583688
-0.00583173
-0.00583115
-0.00583571
-0.00584609
-0.00586297
-0.00588711
-0.00591933
-0.0059605
-0.00601155
-0.00607347
-0.0061473
-0.00623413
-0.00633514
-0.00645154
-0.00658458
-0.00673559
-0.00690593
-0.00709703
-0.00731035
-0.0075474
-0.00780974
-0.00809899
-0.0084168
-0.00876487
-0.00914497
-0.00955891
-0.0100085
-0.0104958
-0.0110226
-0.0115911
-0.0122032
-0.012861
-0.0135668
-0.0143225
-0.0151303
-0.0159921
-0.0169101
-0.017886
-0.0189215
-0.020018
-0.0211768
-0.0223987
-0.0236844
-0.0250338
-0.0264468
-0.0279224
-0.0294593
-0.0310557
-0.0327092
-0.0344168
-0.036175
-0.0379799
-0.0398272
-0.0417121
-0.0436294
-0.0455739
-0.0475399
-0.0495219
-0.0515139
-0.0535102
-0.0555048
-0.0574917
-0.0594648
-0.0614179
-0.0633445
-0.065238
-0.0670911
-0.0688963
-0.0706453
-0.0723293
-0.0739385
-0.0754624
-0.0768896
-0.0782076
-0.0794033
-0.0804623
-0.0813698
-0.0821099
-0.00619938
-0.0061666
-0.00613468
-0.00610492
-0.00607537
-0.00604558
-0.00601572
-0.00598593
-0.00595629
-0.00592688
-0.00589781
-0.0058692
-0.00584119
-0.00581395
-0.00578767
-0.00576255
-0.00573885
-0.00571682
-0.00569678
-0.00567906
-0.00566404
-0.00565214
-0.00564382
-0.00563958
-0.00563999
-0.00564565
-0.00565721
-0.0056754
-0.00570098
-0.00573477
-0.00577767
-0.00583061
-0.0058946
-0.00597071
-0.00606004
-0.00616378
-0.00628315
-0.00641946
-0.00657403
-0.00674826
-0.0069436
-0.00716154
-0.00740363
-0.00767146
-0.00796669
-0.008291
-0.00864616
-0.00903396
-0.00945628
-0.00991502
-0.0104122
-0.0109498
-0.0115298
-0.0121546
-0.0128261
-0.0135466
-0.0143182
-0.015143
-0.0160232
-0.0169607
-0.0179574
-0.0190149
-0.0201347
-0.0213178
-0.0225653
-0.0238773
-0.025254
-0.0266949
-0.0281989
-0.0297645
-0.0313896
-0.0330717
-0.0348073
-0.036593
-0.0384244
-0.0402969
-0.0422056
-0.0441449
-0.0461095
-0.0480934
-0.0500906
-0.0520951
-0.0541007
-0.0561011
-0.0580899
-0.0600605
-0.0620062
-0.0639198
-0.065794
-0.0676208
-0.0693917
-0.0710976
-0.0727284
-0.0742735
-0.0757211
-0.0770587
-0.0782728
-0.079349
-0.0802719
-0.0810257
-0.00600561
-0.00597384
-0.00594287
-0.00591393
-0.00588512
-0.00585601
-0.00582676
-0.0057975
-0.0057683
-0.00573922
-0.00571036
-0.00568183
-0.00565376
-0.00562629
-0.00559959
-0.00557384
-0.00554928
-0.00552613
-0.00550468
-0.00548523
-0.00546813
-0.00545376
-0.00544255
-0.00543496
-0.00543149
-0.00543273
-0.00543927
-0.00545178
-0.00547099
-0.00549767
-0.00553266
-0.00557685
-0.0056312
-0.00569672
-0.00577449
-0.00586563
-0.00597135
-0.00609289
-0.00623156
-0.00638873
-0.0065658
-0.00676426
-0.00698564
-0.00723151
-0.0075035
-0.00780332
-0.0081327
-0.00849346
-0.00888745
-0.0093166
-0.0097829
-0.0102884
-0.0108352
-0.0114254
-0.0120614
-0.0127451
-0.0134791
-0.0142653
-0.0151062
-0.0160037
-0.01696
-0.0179768
-0.0190558
-0.0201985
-0.021406
-0.0226789
-0.0240175
-0.0254219
-0.0268912
-0.0284243
-0.0300194
-0.0316742
-0.0333858
-0.0351507
-0.0369649
-0.038824
-0.0407229
-0.0426563
-0.0446187
-0.0466041
-0.0486064
-0.0506192
-0.0526361
-0.0546505
-0.0566557
-0.0586448
-0.0606106
-0.0625458
-0.0644424
-0.0662924
-0.0680868
-0.0698162
-0.0714704
-0.0730383
-0.0745081
-0.0758669
-0.0771009
-0.0781956
-0.0791354
-0.079904
-0.00579874
-0.00576807
-0.00573812
-0.00571007
-0.00568209
-0.00565376
-0.00562523
-0.0055966
-0.00556795
-0.00553933
-0.00551082
-0.00548252
-0.00545454
-0.005427
-0.00540006
-0.00537388
-0.00534866
-0.00532461
-0.00530198
-0.00528105
-0.00526213
-0.00524556
-0.00523173
-0.00522106
-0.00521402
-0.00521114
-0.00521296
-0.00522011
-0.00523325
-0.00525311
-0.00528048
-0.00531618
-0.00536113
-0.00541628
-0.00548266
-0.00556134
-0.00565348
-0.00576028
-0.00588301
-0.006023
-0.00618162
-0.00636033
-0.00656063
-0.00678407
-0.0070323
-0.00730698
-0.00760985
-0.00794273
-0.00830748
-0.00870604
-0.00914041
-0.00961267
-0.0101249
-0.0106794
-0.0112784
-0.0119241
-0.0126189
-0.0133651
-0.0141651
-0.0150211
-0.0159354
-0.0169099
-0.0179466
-0.0190471
-0.0202129
-0.0214449
-0.0227439
-0.02411
-0.0255429
-0.0270417
-0.0286052
-0.0302312
-0.0319171
-0.0336598
-0.0354555
-0.0372998
-0.0391879
-0.0411145
-0.0430741
-0.0450605
-0.0470674
-0.0490885
-0.0511169
-0.0531458
-0.0551681
-0.0571765
-0.0591635
-0.0611214
-0.0630419
-0.0649165
-0.0667359
-0.0684905
-0.0701697
-0.0717621
-0.0732557
-0.0746372
-0.0758928
-0.0770074
-0.0779654
-0.0787501
-0.00558228
-0.00555276
-0.0055239
-0.00549681
-0.00546973
-0.00544225
-0.00541452
-0.00538663
-0.00535863
-0.00533058
-0.00530254
-0.0052746
-0.00524685
-0.00521941
-0.00519239
-0.00516595
-0.00514027
-0.00511553
-0.00509194
-0.00506976
-0.00504927
-0.00503076
-0.00501459
-0.00500114
-0.00499082
-0.00498412
-0.00498154
-0.00498364
-0.00499104
-0.00500441
-0.00502446
-0.00505198
-0.00508781
-0.00513285
-0.00518807
-0.00525449
-0.0053332
-0.00542536
-0.00553218
-0.00565496
-0.00579503
-0.0059538
-0.00613276
-0.00633343
-0.00655743
-0.00680643
-0.00708216
-0.00738643
-0.00772111
-0.00808817
-0.00848961
-0.00892754
-0.00940414
-0.00992165
-0.0104824
-0.0110887
-0.011743
-0.0124478
-0.0132055
-0.0140185
-0.0148892
-0.0158199
-0.0168126
-0.0178695
-0.018992
-0.0201815
-0.0214391
-0.0227653
-0.0241601
-0.0256231
-0.0271533
-0.0287489
-0.0304076
-0.0321267
-0.0339024
-0.0357308
-0.037607
-0.0395259
-0.0414818
-0.0434686
-0.04548
-0.0475091
-0.0495491
-0.0515928
-0.0536327
-0.0556611
-0.0576703
-0.0596519
-0.0615976
-0.0634982
-0.0653442
-0.0671255
-0.0688313
-0.0704498
-0.0719688
-0.0733747
-0.0746532
-0.0757894
-0.0767669
-0.0775691
-0.00535924
-0.00533092
-0.00530319
-0.00527711
-0.00525099
-0.00522444
-0.00519758
-0.0051705
-0.00514325
-0.00511587
-0.00508841
-0.00506095
-0.00503356
-0.00500635
-0.00497941
-0.00495289
-0.00492692
-0.00490168
-0.00487735
-0.00485414
-0.00483231
-0.00481212
-0.00479388
-0.00477792
-0.00476463
-0.00475442
-0.00474776
-0.00474514
-0.00474713
-0.00475433
-0.0047674
-0.00478707
-0.00481409
-0.00484932
-0.00489366
-0.00494805
-0.00501354
-0.00509122
-0.00518225
-0.00528786
-0.00540935
-0.0055481
-0.00570554
-0.00588318
-0.0060826
-0.00630547
-0.00655351
-0.00682853
-0.00713242
-0.00746714
-0.00783475
-0.00823737
-0.00867723
-0.00915663
-0.00967793
-0.0102436
-0.0108561
-0.0115181
-0.0122321
-0.0130007
-0.0138265
-0.0147119
-0.0156593
-0.0166709
-0.0177486
-0.0188942
-0.0201089
-0.0213936
-0.0227488
-0.0241744
-0.0256697
-0.0272334
-0.0288636
-0.0305575
-0.032312
-0.0341232
-0.0359864
-0.0378965
-0.039848
-0.0418347
-0.04385
-0.045887
-0.0479386
-0.0499972
-0.052055
-0.0541042
-0.0561363
-0.0581428
-0.0601146
-0.0620425
-0.0639165
-0.065726
-0.0674599
-0.0691062
-0.070652
-0.0720838
-0.073387
-0.074546
-0.0755446
-0.0763655
-0.00513217
-0.00510509
-0.00507853
-0.00505351
-0.0050284
-0.00500282
-0.0049769
-0.0049507
-0.00492428
-0.00489765
-0.00487087
-0.00484399
-0.00481709
-0.00479023
-0.00476352
-0.00473706
-0.00471098
-0.00468542
-0.00466054
-0.00463652
-0.00461358
-0.00459195
-0.0045719
-0.00455372
-0.00453774
-0.00452433
-0.00451389
-0.00450688
-0.0045038
-0.00450517
-0.00451161
-0.00452376
-0.00454232
-0.00456806
-0.00460182
-0.00464447
-0.00469699
-0.0047604
-0.0048358
-0.00492436
-0.00502733
-0.00514603
-0.00528186
-0.00543629
-0.00561088
-0.00580727
-0.00602717
-0.00627241
-0.00654487
-0.00684653
-0.00717949
-0.00754591
-0.00794805
-0.00838828
-0.00886906
-0.00939292
-0.00996248
-0.0105804
-0.0112495
-0.0119724
-0.0127519
-0.0135906
-0.0144913
-0.0154563
-0.0164878
-0.017588
-0.0187584
-0.0200002
-0.0213144
-0.0227012
-0.0241603
-0.0256906
-0.0272908
-0.0289583
-0.0306903
-0.0324831
-0.0343322
-0.0362326
-0.0381788
-0.0401646
-0.0421833
-0.0442279
-0.0462909
-0.0483646
-0.0504407
-0.052511
-0.0545668
-0.056599
-0.0585981
-0.0605545
-0.0624577
-0.0642968
-0.0660603
-0.0677357
-0.06931
-0.0707692
-0.0720984
-0.0732817
-0.0743026
-0.0751436
-0.00490323
-0.00487741
-0.00485205
-0.00482812
-0.00480406
-0.0047795
-0.00475456
-0.00472932
-0.00470378
-0.00467799
-0.00465197
-0.00462577
-0.00459946
-0.00457308
-0.00454672
-0.00452047
-0.00449443
-0.00446872
-0.00444347
-0.00441884
-0.00439501
-0.00437217
-0.00435055
-0.00433041
-0.00431202
-0.0042957
-0.00428181
-0.00427073
-0.00426291
-0.0042588
-0.00425895
-0.00426393
-0.00427438
-0.00429097
-0.00431448
-0.0043457
-0.00438554
-0.00443493
-0.00449492
-0.0045666
-0.00465116
-0.00474986
-0.00486406
-0.00499518
-0.00514476
-0.0053144
-0.00550582
-0.00572083
-0.00596132
-0.0062293
-0.00652689
-0.00685631
-0.00721986
-0.00761999
-0.00805924
-0.00854023
-0.0090657
-0.00963845
-0.0102614
-0.0109374
-0.0116694
-0.0124603
-0.0133129
-0.0142301
-0.0152142
-0.0162677
-0.0173925
-0.0185902
-0.0198621
-0.0212087
-0.0226302
-0.024126
-0.0256948
-0.0273347
-0.029043
-0.0308162
-0.0326501
-0.0345399
-0.03648
-0.0384642
-0.0404858
-0.0425376
-0.0446118
-0.0467005
-0.0487952
-0.050887
-0.052967
-0.0550256
-0.057053
-0.0590389
-0.0609725
-0.0628425
-0.0646368
-0.0663428
-0.067947
-0.069435
-0.0707916
-0.0720006
-0.0730452
-0.0739075
-0.00467421
-0.00464966
-0.00462553
-0.00460271
-0.00457973
-0.00455624
-0.00453233
-0.00450808
-0.0044835
-0.0044586
-0.00443342
-0.004408
-0.00438236
-0.00435657
-0.00433068
-0.00430477
-0.00427891
-0.00425321
-0.00422777
-0.00420271
-0.00417819
-0.00415436
-0.00413142
-0.00410956
-0.00408903
-0.00407009
-0.00405303
-0.0040382
-0.00402595
-0.0040167
-0.00401091
-0.00400907
-0.00401175
-0.00401955
-0.00403314
-0.00405326
-0.00408072
-0.00411638
-0.00416121
-0.00421621
-0.00428253
-0.00436134
-0.00445395
-0.00456175
-0.00468621
-0.00482893
-0.0049916
-0.00517602
-0.0053841
-0.00561788
-0.00587949
-0.00617121
-0.0064954
-0.0068546
-0.0072514
-0.00768857