/*--------------------------------*- C++ -*----------------------------------*\
| =========                 |                                                 |
| \\      /  F ield         | OpenFOAM: The Open Source CFD Toolbox           |
|  \\    /   O peration     | Version:  2406                                  |
|   \\  /    A nd           | Website:  www.openfoam.com                      |
|    \\/     M anipulation  |                                                 |
\*---------------------------------------------------------------------------*/
FoamFile
{
    version     2.0;
    format      ascii;
    arch        "LSB;label=32;scalar=64";
    class       surfaceScalarField;
    location    "24.9";
    object      phi;
}
// * * * * * * * * * * * * * * * * * * * * * * * * * * * * * * * * * * * * * //

dimensions      [0 3 -1 0 0 0 0];

oriented        oriented;

internalField   nonuniform List<scalar> 
79600
(
4.68296e-09
2.82444e-07
-2.87128e-07
1.82149e-08
8.6349e-07
-8.77022e-07
4.02005e-08
1.4743e-06
-1.49628e-06
7.01499e-08
2.11559e-06
-2.14554e-06
1.07471e-07
2.78805e-06
-2.82537e-06
1.51463e-07
3.49232e-06
-3.53631e-06
2.01316e-07
4.22896e-06
-4.27882e-06
2.56105e-07
4.9985e-06
-5.05329e-06
3.14786e-07
5.80138e-06
-5.86006e-06
3.76198e-07
6.63797e-06
-6.69938e-06
4.39063e-07
7.50856e-06
-7.57143e-06
5.01986e-07
8.41336e-06
-8.47628e-06
5.63461e-07
9.35248e-06
-9.41395e-06
6.21873e-07
1.03259e-05
-1.03844e-05
6.75514e-07
1.13337e-05
-1.13873e-05
7.22583e-07
1.23756e-05
-1.24226e-05
7.61209e-07
1.34513e-05
-1.349e-05
7.89459e-07
1.45607e-05
-1.45889e-05
8.0536e-07
1.57032e-05
-1.57191e-05
8.06919e-07
1.68785e-05
-1.688e-05
7.92146e-07
1.8086e-05
-1.80713e-05
7.59078e-07
1.93254e-05
-1.92923e-05
7.05806e-07
2.0596e-05
-2.05427e-05
6.30507e-07
2.18974e-05
-2.18221e-05
5.31466e-07
2.32292e-05
-2.31302e-05
4.07114e-07
2.45911e-05
-2.44668e-05
2.56049e-07
2.59829e-05
-2.58318e-05
7.70678e-08
2.74044e-05
-2.72254e-05
-1.3081e-07
2.88558e-05
-2.86479e-05
-3.6832e-07
3.03374e-05
-3.00998e-05
-6.35937e-07
3.18496e-05
-3.1582e-05
-9.33856e-07
3.33932e-05
-3.30953e-05
-1.26199e-06
3.49693e-05
-3.46411e-05
-1.61998e-06
3.65789e-05
-3.62209e-05
-2.00716e-06
3.82236e-05
-3.78364e-05
-2.42262e-06
3.9905e-05
-3.94895e-05
-2.86519e-06
4.16249e-05
-4.11823e-05
-3.33347e-06
4.33852e-05
-4.29169e-05
-3.82588e-06
4.51879e-05
-4.46955e-05
-4.34065e-06
4.7035e-05
-4.65202e-05
-4.87589e-06
4.89283e-05
-4.8393e-05
-5.42964e-06
5.08694e-05
-5.03156e-05
-5.99984e-06
5.28596e-05
-5.22894e-05
-6.58444e-06
5.48999e-05
-5.43153e-05
-7.18138e-06
5.69905e-05
-5.63936e-05
-7.78863e-06
5.91313e-05
-5.8524e-05
-8.40422e-06
6.13211e-05
-6.07055e-05
-9.02624e-06
6.3558e-05
-6.29359e-05
-9.65287e-06
6.58391e-05
-6.52125e-05
-1.02823e-05
6.81607e-05
-6.75312e-05
-1.09129e-05
7.05176e-05
-6.9887e-05
-1.15431e-05
7.29039e-05
-7.22737e-05
-1.21712e-05
7.53121e-05
-7.4684e-05
-1.27957e-05
7.77338e-05
-7.71092e-05
-1.34153e-05
8.01593e-05
-7.95398e-05
-1.40284e-05
8.25778e-05
-8.19647e-05
-1.46338e-05
8.49773e-05
-8.43719e-05
-1.52301e-05
8.73448e-05
-8.67485e-05
-1.58161e-05
8.96664e-05
-8.90804e-05
-1.63906e-05
9.19272e-05
-9.13527e-05
-1.69526e-05
9.41119e-05
-9.35499e-05
-1.75012e-05
9.62045e-05
-9.56559e-05
-1.80357e-05
9.81891e-05
-9.76546e-05
-1.85555e-05
0.000100049
-9.95296e-05
-1.90603e-05
0.00010177
-0.000101265
-1.95501e-05
0.000103335
-0.000102845
-2.00252e-05
0.000104732
-0.000104257
-2.04861e-05
0.000105946
-0.000105485
-2.09337e-05
0.000106968
-0.00010652
-2.13692e-05
0.000107787
-0.000107351
-2.17942e-05
0.000108397
-0.000107972
-2.22104e-05
0.000108792
-0.000108376
-2.26198e-05
0.000108972
-0.000108562
-2.30248e-05
0.000108934
-0.000108529
-2.34276e-05
0.000108682
-0.00010828
-2.38308e-05
0.00010822
-0.000107816
-2.42368e-05
0.000107551
-0.000107145
-2.46478e-05
0.000106682
-0.000106271
-2.50663e-05
0.000105619
-0.000105201
-2.5494e-05
0.000104367
-0.00010394
-2.59328e-05
0.000102931
-0.000102492
-2.63841e-05
0.000101311
-0.000100859
-2.6849e-05
9.95065e-05
-9.90415e-05
-2.73285e-05
9.75137e-05
-9.70342e-05
-2.78231e-05
9.53243e-05
-9.48298e-05
-2.83331e-05
9.29266e-05
-9.24165e-05
-2.8859e-05
9.03047e-05
-8.97788e-05
-2.94008e-05
8.74392e-05
-8.68974e-05
-2.99589e-05
8.43076e-05
-8.37495e-05
-3.05335e-05
8.0884e-05
-8.03094e-05
-3.11253e-05
7.71406e-05
-7.65489e-05
-3.17349e-05
7.30478e-05
-7.24381e-05
-3.23637e-05
6.85745e-05
-6.79458e-05
-3.30128e-05
6.36893e-05
-6.30402e-05
-3.36843e-05
5.83602e-05
-5.76887e-05
-3.43803e-05
5.25551e-05
-5.18591e-05
-3.51033e-05
4.62418e-05
-4.55189e-05
-3.5856e-05
3.93884e-05
-3.86356e-05
-3.66418e-05
3.19625e-05
-3.11767e-05
2.39313e-05
-3.74638e-05
-2.31093e-05
6.13383e-09
2.7631e-07
2.41015e-08
8.45522e-07
5.36624e-08
1.44473e-06
9.44837e-08
2.07477e-06
1.46132e-07
2.7364e-06
2.08068e-07
3.43038e-06
2.79641e-07
4.15739e-06
3.60085e-07
4.91806e-06
4.48511e-07
5.71295e-06
5.43909e-07
6.54257e-06
6.45145e-07
7.40733e-06
7.5096e-07
8.30754e-06
8.59971e-07
9.24347e-06
9.70677e-07
1.02152e-05
1.08146e-06
1.12229e-05
1.19061e-06
1.22664e-05
1.29631e-06
1.33456e-05
1.39666e-06
1.44603e-05
1.4897e-06
1.56102e-05
1.57344e-06
1.67947e-05
1.64583e-06
1.80136e-05
1.70487e-06
1.92663e-05
1.74854e-06
2.05523e-05
1.7749e-06
2.1871e-05
1.7821e-06
2.3222e-05
1.7684e-06
2.46048e-05
1.7322e-06
2.60191e-05
1.67209e-06
2.74645e-05
1.58686e-06
2.8941e-05
1.47555e-06
3.04487e-05
1.33744e-06
3.19877e-05
1.17209e-06
3.35586e-05
9.79337e-07
3.5162e-05
7.59331e-07
3.67989e-05
5.12503e-07
3.84704e-05
2.39573e-07
4.01779e-05
-5.84676e-08
4.19229e-05
-3.80377e-07
4.37071e-05
-7.24691e-07
4.55322e-05
-1.08976e-06
4.74001e-05
-1.47377e-06
4.93123e-05
-1.87483e-06
5.12704e-05
-2.29093e-06
5.32757e-05
-2.72008e-06
5.5329e-05
-3.16026e-06
5.74307e-05
-3.60952e-06
5.95805e-05
-4.06596e-06
6.17775e-05
-4.52779e-06
6.40198e-05
-4.99332e-06
6.63047e-05
-5.46099e-06
6.86284e-05
-5.92934e-06
7.0986e-05
-6.39706e-06
7.33716e-05
-6.86295e-06
7.5778e-05
-7.32589e-06
7.81967e-05
-7.78491e-06
8.06183e-05
-8.23911e-06
8.3032e-05
-8.68768e-06
8.54259e-05
-9.12992e-06
8.7787e-05
-9.56522e-06
9.01017e-05
-9.99308e-06
9.2355e-05
-1.04131e-05
9.45319e-05
-1.0825e-05
9.66165e-05
-1.12287e-05
9.85928e-05
-1.16243e-05
0.000100445
-1.20119e-05
0.000102157
-1.23919e-05
0.000103715
-1.2765e-05
0.000105105
-1.31319e-05
0.000106313
-1.34936e-05
0.000107329
-1.38513e-05
0.000108144
-1.42063e-05
0.000108752
-1.456e-05
0.000109146
-1.49139e-05
0.000109326
-1.52696e-05
0.00010929
-1.56287e-05
0.000109042
-1.59928e-05
0.000108584
-1.63632e-05
0.000107921
-1.67413e-05
0.00010706
-1.71282e-05
0.000106006
-1.75249e-05
0.000104764
-1.79322e-05
0.000103338
-1.83508e-05
0.000101729
-1.87809e-05
9.99366e-05
-1.9223e-05
9.79558e-05
-1.96774e-05
9.57787e-05
-2.01444e-05
9.33935e-05
-2.06242e-05
9.07845e-05
-2.11175e-05
8.79325e-05
-2.16247e-05
8.48149e-05
-2.21471e-05
8.14063e-05
-2.26856e-05
7.76792e-05
-2.32421e-05
7.36042e-05
-2.38184e-05
6.91508e-05
-2.44167e-05
6.42877e-05
-2.50399e-05
5.89834e-05
-2.56909e-05
5.32061e-05
-2.6373e-05
4.69239e-05
-2.70897e-05
4.01052e-05
-2.7845e-05
3.27177e-05
2.47291e-05
-2.86428e-05
7.35239e-09
2.68958e-07
2.90638e-08
8.23811e-07
6.50421e-08
1.40876e-06
1.15108e-07
2.0247e-06
1.78985e-07
2.67253e-06
2.56295e-07
3.35307e-06
3.46551e-07
4.06713e-06
4.49149e-07
4.81546e-06
5.63366e-07
5.59874e-06
6.88353e-07
6.41759e-06
8.23133e-07
7.27255e-06
9.66599e-07
8.16408e-06
1.11751e-06
9.09255e-06
1.27451e-06
1.00582e-05
1.4361e-06
1.10613e-05
1.60066e-06
1.21019e-05
1.76647e-06
1.31798e-05
1.93171e-06
1.42951e-05
2.09447e-06
1.54474e-05
2.25277e-06
1.66364e-05
2.40457e-06
1.78618e-05
2.54782e-06
1.91231e-05
2.68047e-06
2.04197e-05
2.80048e-06
2.1751e-05
2.90587e-06
2.31166e-05
2.99477e-06
2.45159e-05
3.06542e-06
2.59484e-05
3.11619e-06
2.74137e-05
3.14568e-06
2.89115e-05
3.15268e-06
3.04417e-05
3.13622e-06
3.20042e-05
3.09561e-06
3.35992e-05
3.03044e-06
3.52272e-05
2.94059e-06
3.68888e-05
2.82626e-06
3.85848e-05
2.68792e-06
4.03163e-05
2.52636e-06
4.20845e-05
2.34262e-06
4.38908e-05
2.13799e-06
4.57369e-05
1.91399e-06
4.76241e-05
1.67229e-06
4.9554e-05
1.41471e-06
5.1528e-05
1.14315e-06
5.35473e-05
8.59552e-07
5.56126e-05
5.65862e-07
5.77244e-05
2.63973e-07
5.98824e-05
-4.42999e-08
6.20858e-05
-3.57255e-07
6.43327e-05
-6.73328e-07
6.66207e-05
-9.91109e-07
6.89461e-05
-1.30935e-06
7.13042e-05
-1.62699e-06
7.36892e-05
-1.9431e-06
7.60941e-05
-2.25694e-06
7.85106e-05
-2.56792e-06
8.09293e-05
-2.87559e-06
8.33397e-05
-3.17965e-06
8.57299e-05
-3.47989e-06
8.80873e-05
-3.77628e-06
9.0398e-05
-4.06887e-06
9.26476e-05
-4.35784e-06
9.48209e-05
-4.6435e-06
9.69021e-05
-4.92625e-06
9.88755e-05
-5.20665e-06
0.000100725
-5.48534e-06
0.000102436
-5.7631e-06
0.000103993
-6.04078e-06
0.000105382
-6.31931e-06
0.000106592
-6.59994e-06
0.00010761
-6.88353e-06
0.000108428
-7.17123e-06
0.000109039
-7.46415e-06
0.000109439
-7.76334e-06
0.000109625
-8.06976e-06
0.000109597
-8.38427e-06
0.000109356
-8.70759e-06
0.000108907
-9.04027e-06
0.000108254
-9.38271e-06
0.000107403
-9.73512e-06
0.000106358
-1.00976e-05
0.000105127
-1.04701e-05
0.00010371
-1.08525e-05
0.000102112
-1.12447e-05
0.000100329
-1.16465e-05
9.83577e-05
-1.20581e-05
9.61903e-05
-1.24795e-05
9.3815e-05
-1.29114e-05
9.12163e-05
-1.33543e-05
8.83754e-05
-1.38095e-05
8.527e-05
-1.42785e-05
8.18753e-05
-1.47631e-05
7.81639e-05
-1.52657e-05
7.41068e-05
-1.5789e-05
6.96741e-05
-1.63361e-05
6.48349e-05
-1.69105e-05
5.95578e-05
-1.75159e-05
5.38115e-05
-1.81564e-05
4.75644e-05
-1.88363e-05
4.0785e-05
-1.956e-05
3.34414e-05
2.55013e-05
-2.03322e-05
8.35039e-09
2.60607e-07
3.31449e-08
7.99016e-07
7.44326e-08
1.36747e-06
1.32181e-07
1.96695e-06
2.06268e-07
2.59844e-06
2.96473e-07
3.26287e-06
4.02471e-07
3.96114e-06
5.23824e-07
4.69411e-06
6.59977e-07
5.46258e-06
8.1025e-07
6.26731e-06
9.73834e-07
7.10896e-06
1.14979e-06
7.98813e-06
1.33703e-06
8.90531e-06
1.53435e-06
9.86092e-06
1.74039e-06
1.08553e-05
1.95368e-06
1.18886e-05
2.17261e-06
1.29609e-05
2.39545e-06
1.40722e-05
2.62038e-06
1.52225e-05
2.84546e-06
1.64114e-05
3.06871e-06
1.76386e-05
3.28807e-06
1.89037e-05
3.50145e-06
2.02063e-05
3.70679e-06
2.15457e-05
3.90201e-06
2.29214e-05
4.08513e-06
2.43328e-05
4.25423e-06
2.57793e-05
4.40753e-06
2.72604e-05
4.54342e-06
2.87756e-05
4.66046e-06
3.03246e-05
4.75745e-06
3.19072e-05
4.83345e-06
3.35232e-05
4.88776e-06
3.51729e-05
4.92002e-06
3.68565e-05
4.93012e-06
3.85747e-05
4.91832e-06
4.03281e-05
4.88512e-06
4.21177e-05
4.83136e-06
4.39446e-05
4.75811e-06
4.58101e-05
4.6667e-06
4.77155e-05
4.55865e-06
4.9662e-05
4.43565e-06
5.1651e-05
4.29949e-06
5.36834e-05
4.15203e-06
5.57601e-05
3.99513e-06
5.78813e-05
3.83061e-06
6.00469e-05
3.66023e-06
6.22562e-05
3.4856e-06
6.45074e-05
3.3082e-06
6.67981e-05
3.1293e-06
6.9125e-05
2.95e-06
7.14835e-05
2.77118e-06
7.3868e-05
2.59351e-06
7.62718e-05
2.41744e-06
7.86867e-05
2.24323e-06
8.11035e-05
2.07097e-06
8.35119e-05
1.90053e-06
8.59004e-05
1.73166e-06
8.82562e-05
1.56392e-06
9.05658e-05
1.39677e-06
9.28148e-05
1.22953e-06
9.49881e-05
1.06139e-06
9.70703e-05
8.91476e-07
9.90455e-05
7.18801e-07
0.000100898
5.42323e-07
0.000102613
3.60944e-07
0.000104174
1.73519e-07
0.00010557
-2.10796e-08
0.000106786
-2.23523e-07
0.000107812
-4.35251e-07
0.00010864
-6.5716e-07
0.000109261
-8.90006e-07
0.000109672
-1.13441e-06
0.000109869
-1.39079e-06
0.000109853
-1.65937e-06
0.000109625
-1.94016e-06
0.000109188
-2.23292e-06
0.000108547
-2.53724e-06
0.000107707
-2.85254e-06
0.000106674
-3.17812e-06
0.000105452
-3.51321e-06
0.000104046
-3.85708e-06
0.000102455
-4.20907e-06
0.000100681
-4.56873e-06
9.87173e-05
-4.93586e-06
9.65574e-05
-5.31061e-06
9.41897e-05
-5.69353e-06
9.15993e-05
-6.08563e-06
8.87675e-05
-6.48841e-06
8.56728e-05
-6.90381e-06
8.22907e-05
-7.33457e-06
7.85946e-05
-7.78344e-06
7.45557e-05
-8.25391e-06
7.01446e-05
-8.74982e-06
6.53308e-05
-9.27535e-06
6.00833e-05
-9.83499e-06
5.43711e-05
-1.04335e-05
4.81629e-05
-1.10757e-05
4.14273e-05
-1.17669e-05
3.41326e-05
2.62467e-05
-1.25123e-05
9.14229e-09
2.51465e-07
3.6401e-08
7.71758e-07
8.1957e-08
1.32191e-06
1.45917e-07
1.90299e-06
2.28305e-07
2.51605e-06
3.29054e-07
3.16212e-06
4.47996e-07
3.84219e-06
5.84861e-07
4.55724e-06
7.39259e-07
5.30819e-06
9.10683e-07
6.09589e-06
1.0985e-06
6.92115e-06
1.30193e-06
7.78469e-06
1.52008e-06
8.68716e-06
1.75189e-06
9.62911e-06
1.99618e-06
1.0611e-05
2.25162e-06
1.16331e-05
2.51675e-06
1.26958e-05
2.78995e-06
1.3799e-05
3.06952e-06
1.49429e-05
3.3536e-06
1.61273e-05
3.64029e-06
1.73519e-05
3.92755e-06
1.86164e-05
4.21334e-06
1.99205e-05
4.49553e-06
2.12635e-05
4.77204e-06
2.26449e-05
5.04078e-06
2.40641e-05
5.29972e-06
2.55204e-05
5.54696e-06
2.70132e-05
5.78068e-06
2.85419e-05
5.99927e-06
3.0106e-05
6.20128e-06
3.17052e-05
6.38551e-06
3.3339e-05
6.55102e-06
3.50074e-05
6.69716e-06
3.67104e-05
6.82355e-06
3.84483e-05
6.93015e-06
4.02215e-05
7.01721e-06
4.20306e-05
7.08529e-06
4.38765e-05
7.13524e-06
4.57602e-05
7.16816e-06
4.76826e-05
7.18538e-06
4.96448e-05
7.18843e-06
5.16479e-05
7.17897e-06
5.36929e-05
7.15872e-06
5.57803e-05
7.12948e-06
5.79106e-05
7.09298e-06
6.00834e-05
7.05091e-06
6.22982e-05
7.00482e-06
6.45535e-05
6.9561e-06
6.68469e-05
6.90595e-06
6.91752e-05
6.85535e-06
7.15341e-05
6.80502e-06
7.39184e-05
6.75545e-06
7.63213e-05
6.70687e-06
7.87352e-05
6.65928e-06
8.11511e-05
6.61244e-06
8.35588e-05
6.5659e-06
8.59469e-05
6.51901e-06
8.83031e-05
6.47093e-06
9.06139e-05
6.4207e-06
9.2865e-05
6.3672e-06
9.50416e-05
6.3092e-06
9.71283e-05
6.2454e-06
9.91093e-05
6.17444e-06
0.000100969
6.09494e-06
0.000102692
6.00551e-06
0.000104264
5.90485e-06
0.00010567
5.7917e-06
0.000106899
5.66472e-06
0.000107939
5.52315e-06
0.000108781
5.3662e-06
0.000109418
5.19331e-06
0.000109845
5.00422e-06
0.000110058
4.79894e-06
0.000110058
4.57781e-06
0.000109846
4.34143e-06
0.000109424
4.09069e-06
0.000108797
3.82671e-06
0.000107971
3.55077e-06
0.00010695
3.26425e-06
0.000105739
2.96854e-06
0.000104341
2.66494e-06
0.000102759
2.35455e-06
0.000100991
2.03817e-06
9.90337e-05
1.7162e-06
9.68794e-05
1.38856e-06
9.45174e-05
1.05463e-06
9.19332e-05
7.13173e-07
8.9109e-05
3.62325e-07
8.60237e-05
-4.4858e-10
8.26534e-05
-3.77638e-07
7.89718e-05
-7.73343e-07
7.49514e-05
-1.19154e-06
7.05628e-05
-1.63668e-06
6.57759e-05
-2.11363e-06
6.05603e-05
-2.62752e-06
5.4885e-05
-3.18377e-06
4.87192e-05
-3.78797e-06
4.20315e-05
-4.44588e-06
3.47905e-05
2.69642e-05
-5.16336e-06
9.7447e-09
2.4172e-07
3.88963e-08
7.42606e-07
8.77572e-08
1.27305e-06
1.56564e-07
1.83419e-06
2.45477e-07
2.42714e-06
3.54574e-07
3.05302e-06
4.83844e-07
3.71292e-06
6.33171e-07
4.40792e-06
8.02336e-07
5.13902e-06
9.90999e-07
5.90722e-06
1.1987e-06
6.71345e-06
1.42485e-06
7.55854e-06
1.66871e-06
8.4433e-06
1.92943e-06
9.36839e-06
2.20597e-06
1.03344e-05
2.49719e-06
1.13419e-05
2.80177e-06
1.23912e-05
3.11826e-06
1.34825e-05
3.44507e-06
1.46161e-05
3.7805e-06
1.57918e-05
4.12269e-06
1.70097e-05
4.46972e-06
1.82694e-05
4.81956e-06
1.95706e-05
5.17014e-06
2.09129e-05
5.51934e-06
2.22957e-05
5.86502e-06
2.37184e-05
6.20511e-06
2.51803e-05
6.53755e-06
2.66807e-05
6.86041e-06
2.82191e-05
7.17188e-06
2.97946e-05
7.47032e-06
3.14067e-05
7.75429e-06
3.3055e-05
8.02259e-06
3.47391e-05
8.27429e-06
3.64587e-05
8.50874e-06
3.82138e-05
8.72559e-06
4.00046e-05
8.92482e-06
4.18314e-05
9.10671e-06
4.36946e-05
9.27182e-06
4.5595e-05
9.42102e-06
4.75333e-05
9.55542e-06
4.95104e-05
9.67635e-06
5.1527e-05
9.78529e-06
5.3584e-05
9.88384e-06
5.56818e-05
9.97368e-06
5.78207e-05
1.00565e-05
6.00007e-05
1.01338e-05
6.22209e-05
1.02072e-05
6.44801e-05
1.02779e-05
6.67761e-05
1.03472e-05
6.91059e-05
1.04159e-05
7.14655e-05
1.04846e-05
7.38497e-05
1.05537e-05
7.62522e-05
1.06232e-05
7.86657e-05
1.0693e-05
8.10813e-05
1.07626e-05
8.34892e-05
1.08312e-05
8.58783e-05
1.08979e-05
8.82364e-05
1.09615e-05
9.05503e-05
1.10207e-05
9.28058e-05
1.10739e-05
9.49884e-05
1.11197e-05
9.70825e-05
1.11562e-05
9.90727e-05
1.11819e-05
0.000100943
1.11949e-05
0.000102679
1.11937e-05
0.000104265
1.11768e-05
0.000105687
1.11426e-05
0.000106933
1.109e-05
0.000107992
1.1018e-05
0.000108853
1.0926e-05
0.00010951
1.08136e-05
0.000109957
1.06808e-05
0.000110191
1.05281e-05
0.000110211
1.03561e-05
0.000110018
1.01661e-05
0.000109614
9.95943e-06
0.000109004
9.73785e-06
0.000108192
9.50323e-06
0.000107184
9.25757e-06
0.000105984
9.00279e-06
0.000104596
8.74068e-06
0.000103021
8.47278e-06
0.000101259
8.20019e-06
9.93063e-05
7.92353e-06
9.7156e-05
7.6428e-06
9.47981e-05
7.35734e-06
9.22186e-05
7.0658e-06
8.94005e-05
6.76609e-06
8.63234e-05
6.45546e-06
8.29641e-05
6.13021e-06
7.92971e-05
5.78646e-06
7.52952e-05
5.41955e-06
7.09297e-05
5.02436e-06
6.61711e-05
4.59543e-06
6.09892e-05
4.12696e-06
5.53535e-05
3.61293e-06
4.92332e-05
3.04712e-06
4.25973e-05
2.42316e-06
3.54145e-05
2.76527e-05
1.73458e-06
1.01753e-08
2.31545e-07
4.07004e-08
7.12081e-07
9.19874e-08
1.22176e-06
1.64391e-07
1.76178e-06
2.582e-07
2.33333e-06
3.73627e-07
2.93759e-06
5.10805e-07
3.57575e-06
6.69773e-07
4.24895e-06
8.50469e-07
4.95833e-06
1.05272e-06
5.70497e-06
1.27625e-06
6.48992e-06
1.52063e-06
7.31416e-06
1.78531e-06
8.17861e-06
2.06962e-06
9.08409e-06
2.37272e-06
1.00313e-05
2.69362e-06
1.1021e-05
3.03119e-06
1.20536e-05
3.38415e-06
1.31296e-05
3.75106e-06
1.42492e-05
4.13036e-06
1.54126e-05
4.52033e-06
1.66197e-05
4.91913e-06
1.78706e-05
5.32483e-06
1.91649e-05
5.7354e-06
2.05023e-05
6.14875e-06
2.18824e-05
6.56274e-06
2.33044e-05
6.97525e-06
2.47678e-05
7.38415e-06
2.62718e-05
7.78739e-06
2.78158e-05
8.18303e-06
2.93989e-05
8.56923e-06
3.10205e-05
8.94435e-06
3.26799e-05
9.30696e-06
3.43765e-05
9.65585e-06
3.61098e-05
9.9901e-06
3.78796e-05
1.03091e-05
3.96856e-05
1.06124e-05
4.1528e-05
1.09002e-05
4.34069e-05
1.11725e-05
4.53227e-05
1.14302e-05
4.72757e-05
1.16739e-05
4.92667e-05
1.19049e-05
5.12961e-05
1.21243e-05
5.33645e-05
1.23337e-05
5.54724e-05
1.25346e-05
5.76199e-05
1.27285e-05
5.98068e-05
1.2917e-05
6.20324e-05
1.31014e-05
6.42956e-05
1.32831e-05
6.65944e-05
1.34632e-05
6.89258e-05
1.36426e-05
7.12862e-05
1.38216e-05
7.36706e-05
1.40008e-05
7.60731e-05
1.41799e-05
7.84865e-05
1.43587e-05
8.09025e-05
1.45365e-05
8.33114e-05
1.47123e-05
8.57025e-05
1.4885e-05
8.80637e-05
1.50531e-05
9.03822e-05
1.5215e-05
9.2644e-05
1.53688e-05
9.48345e-05
1.55127e-05
9.69387e-05
1.56446e-05
9.89408e-05
1.57625e-05
0.000100825
1.58645e-05
0.000102577
1.59486e-05
0.000104181
1.60131e-05
0.000105623
1.60564e-05
0.00010689
1.60773e-05
0.000107971
1.60746e-05
0.000108856
1.60478e-05
0.000109537
1.59967e-05
0.000110008
1.59215e-05
0.000110266
1.58228e-05
0.00011031
1.57019e-05
0.000110139
1.55602e-05
0.000109756
1.53996e-05
0.000109165
1.52224e-05
0.00010837
1.50309e-05
0.000107376
1.48276e-05
0.000106188
1.4615e-05
0.000104809
1.43953e-05
0.000103241
1.41704e-05
0.000101484
1.39417e-05
9.9535e-05
1.37101e-05
9.73877e-05
1.34757e-05
9.50325e-05
1.32378e-05
9.24565e-05
1.2995e-05
8.96433e-05
1.2745e-05
8.65734e-05
1.24848e-05
8.32243e-05
1.22103e-05
7.95715e-05
1.19172e-05
7.55882e-05
1.16004e-05
7.12466e-05
1.12541e-05
6.65174e-05
1.08724e-05
6.13709e-05
1.04488e-05
5.5777e-05
9.97682e-06
4.97052e-05
9.44954e-06
4.31246e-05
8.86003e-06
3.6004e-05
2.83116e-05
8.20122e-06
1.04522e-08
2.21093e-07
4.18845e-08
6.80649e-07
9.48067e-08
1.16884e-06
1.6968e-07
1.68691e-06
2.66909e-07
2.2361e-06
3.86831e-07
2.81767e-06
5.29714e-07
3.43286e-06
6.9574e-07
4.08292e-06
8.84999e-07
4.76907e-06
1.09748e-06
5.49249e-06
1.33307e-06
6.25434e-06
1.59152e-06
7.05571e-06
1.87247e-06
7.89766e-06
2.17541e-06
8.78115e-06
2.49969e-06
9.70705e-06
2.84453e-06
1.06762e-05
3.20897e-06
1.16892e-05
3.59191e-06
1.27466e-05
3.99209e-06
1.3849e-05
4.40809e-06
1.49965e-05
4.83836e-06
1.61895e-05
5.28119e-06
1.74278e-05
5.73475e-06
1.87114e-05
6.19711e-06
2.004e-05
6.66623e-06
2.14132e-05
7.14001e-06
2.28306e-05
7.61631e-06
2.42915e-05
8.09298e-06
2.57952e-05
8.5679e-06
2.73409e-05
9.03898e-06
2.89279e-05
9.50428e-06
3.05552e-05
9.96196e-06
3.22222e-05
1.04104e-05
3.3928e-05
1.08481e-05
3.56721e-05
1.12738e-05
3.74538e-05
1.16868e-05
3.92727e-05
1.20863e-05
4.11285e-05
1.2472e-05
4.30212e-05
1.28439e-05
4.49507e-05
1.32023e-05
4.69173e-05
1.35478e-05
4.89212e-05
1.38812e-05
5.09626e-05
1.42037e-05
5.30421e-05
1.45163e-05
5.51597e-05
1.48207e-05
5.73155e-05
1.5118e-05
5.95094e-05
1.54099e-05
6.17406e-05
1.56976e-05
6.40079e-05
1.59825e-05
6.63095e-05
1.62655e-05
6.86428e-05
1.65475e-05
7.10042e-05
1.6829e-05
7.33891e-05
1.71102e-05
7.57919e-05
1.73911e-05
7.82057e-05
1.76712e-05
8.06224e-05
1.79497e-05
8.30329e-05
1.82255e-05
8.54266e-05
1.84973e-05
8.77919e-05
1.87634e-05
9.01161e-05
1.90219e-05
9.23855e-05
1.92708e-05
9.45857e-05
1.95078e-05
9.67016e-05
1.97307e-05
9.87179e-05
1.99372e-05
0.000100619
2.0125e-05
0.000102389
2.02919e-05
0.000104014
2.04361e-05
0.000105479
2.05557e-05
0.000106771
2.06494e-05
0.000107877
2.07161e-05
0.000108789
2.07551e-05
0.000109498
2.07663e-05
0.000109997
2.075e-05
0.000110283
2.07072e-05
0.000110352
2.06391e-05
0.000110207
2.05477e-05
0.000109847
2.04352e-05
0.000109277
2.03042e-05
0.000108501
2.01575e-05
0.000107523
1.99981e-05
0.000106347
1.98287e-05
0.000104978
1.96522e-05
0.000103417
1.94706e-05
0.000101666
1.92858e-05
9.97198e-05
1.90987e-05
9.75747e-05
1.89098e-05
9.52215e-05
1.87183e-05
9.2648e-05
1.85229e-05
8.98388e-05
1.8321e-05
8.67752e-05
1.81095e-05
8.34358e-05
1.78842e-05
7.97968e-05
1.76402e-05
7.58323e-05
1.73719e-05
7.15149e-05
1.70732e-05
6.6816e-05
1.67377e-05
6.17065e-05
1.63583e-05
5.61564e-05
1.59279e-05
5.01356e-05
1.54391e-05
4.36134e-05
1.48844e-05
3.65587e-05
2.89399e-05
1.42561e-05
1.05934e-08
2.10499e-07
4.252e-08
6.48722e-07
9.63745e-08
1.11499e-06
1.72713e-07
1.61057e-06
2.72042e-07
2.13677e-06
3.94814e-07
2.6949e-06
5.41418e-07
3.28626e-06
7.1217e-07
3.91217e-06
9.07301e-07
4.57394e-06
1.12695e-06
5.27283e-06
1.37117e-06
6.01012e-06
1.63987e-06
6.78701e-06
1.93288e-06
7.60466e-06
2.24986e-06
8.46416e-06
2.59036e-06
9.36655e-06
2.95378e-06
1.03128e-05
3.33935e-06
1.13036e-05
3.74616e-06
1.23398e-05
4.17313e-06
1.3422e-05
4.61904e-06
1.45506e-05
5.08248e-06
1.5726e-05
5.56191e-06
1.69484e-05
6.05565e-06
1.82176e-05
6.56185e-06
1.95338e-05
7.0786e-06
2.08965e-05
7.60385e-06
2.23054e-05
8.13549e-06
2.37598e-05
8.67137e-06
2.52593e-05
9.20933e-06
2.68029e-05
9.74724e-06
2.83899e-05
1.0283e-05
3.00194e-05
1.08147e-05
3.16905e-05
1.13404e-05
3.34023e-05
1.18585e-05
3.5154e-05
1.23676e-05
3.69447e-05
1.28664e-05
3.87739e-05
1.33541e-05
4.06409e-05
1.38299e-05
4.25453e-05
1.42937e-05
4.4487e-05
1.47454e-05
4.64656e-05
1.51852e-05
4.84813e-05
1.56138e-05
5.0534e-05
1.6032e-05
5.26239e-05
1.64408e-05
5.47509e-05
1.68414e-05
5.69149e-05
1.7235e-05
5.91157e-05
1.76231e-05
6.13525e-05
1.80069e-05
6.36241e-05
1.83876e-05
6.59288e-05
1.87662e-05
6.82642e-05
1.91435e-05
7.06269e-05
1.95201e-05
7.30125e-05
1.98961e-05
7.54158e-05
2.02715e-05
7.78303e-05
2.06458e-05
8.02481e-05
2.10182e-05
8.26606e-05
2.13874e-05
8.50574e-05
2.17519e-05
8.74273e-05
2.21101e-05
8.97579e-05
2.24597e-05
9.20359e-05
2.27985e-05
9.42469e-05
2.31241e-05
9.6376e-05
2.34339e-05
9.8408e-05
2.37255e-05
0.000100327
2.39964e-05
0.000102118
2.42441e-05
0.000103766
2.44664e-05
0.000105256
2.46615e-05
0.000106575
2.48277e-05
0.000107711
2.49639e-05
0.000108653
2.50694e-05
0.000109392
2.51441e-05
0.000109922
2.51883e-05
0.000110238
2.5203e-05
0.000110338
2.51898e-05
0.00011022
2.51506e-05
0.000109886
2.50882e-05
0.00010934
2.50052e-05
0.000108584
2.4905e-05
0.000107623
2.47908e-05
0.000106461
2.46659e-05
0.000105103
2.45331e-05
0.00010355
2.43951e-05
0.000101804
2.4254e-05
9.9861e-05
2.4111e-05
9.77177e-05
2.39666e-05
9.53659e-05
2.38203e-05
9.27943e-05
2.36707e-05
8.99883e-05
2.35154e-05
8.69305e-05
2.33508e-05
8.36004e-05
2.31728e-05
7.99749e-05
2.2976e-05
7.6029e-05
2.27546e-05
7.17362e-05
2.25021e-05
6.70685e-05
2.22116e-05
6.19971e-05
2.18754e-05
5.64925e-05
2.14861e-05
5.05249e-05
2.10356e-05
4.40639e-05
2.05158e-05
3.70785e-05
2.95371e-05
1.99185e-05
1.06166e-08
1.99883e-07
4.26762e-08
6.16662e-07
9.68468e-08
1.06082e-06
1.73765e-07
1.53365e-06
2.7403e-07
2.03651e-06
3.98194e-07
2.57073e-06
5.46756e-07
3.1377e-06
7.20152e-07
3.73878e-06
9.18745e-07
4.37534e-06
1.14282e-06
5.04876e-06
1.39256e-06
5.76038e-06
1.66806e-06
6.51151e-06
1.9693e-06
7.30342e-06
2.29613e-06
8.13733e-06
2.64828e-06
9.01441e-06
3.02532e-06
9.93571e-06
3.4267e-06
1.09022e-05
3.8517e-06
1.19148e-05
4.29942e-06
1.29743e-05
4.76883e-06
1.40812e-05
5.25872e-06
1.52361e-05
5.76771e-06
1.64394e-05
6.29427e-06
1.76911e-05
6.83672e-06
1.89913e-05
7.39325e-06
2.034e-05
7.96191e-06
2.17367e-05
8.54067e-06
2.31811e-05
9.12742e-06
2.46725e-05
9.72e-06
2.62104e-05
1.03162e-05
2.77937e-05
1.0914e-05
2.94217e-05
1.15112e-05
3.10934e-05
1.21058e-05
3.28077e-05
1.2696e-05
3.45638e-05
1.32801e-05
3.63606e-05
1.38567e-05
3.81972e-05
1.44247e-05
4.0073e-05
1.4983e-05
4.1987e-05
1.5531e-05
4.39389e-05
1.60685e-05
4.59281e-05
1.65955e-05
4.79544e-05
1.71121e-05
5.00174e-05
1.76191e-05
5.2117e-05
1.8117e-05
5.42529e-05
1.86071e-05
5.64249e-05
1.90903e-05
5.86325e-05
1.95678e-05
6.08749e-05
2.00408e-05
6.3151e-05
2.05106e-05
6.54591e-05
2.0978e-05
6.77968e-05
2.14439e-05
7.0161e-05
2.19087e-05
7.25476e-05
2.23729e-05
7.49517e-05
2.28362e-05
7.7367e-05
2.32981e-05
7.97862e-05
2.37579e-05
8.22008e-05
2.42143e-05
8.4601e-05
2.46657e-05
8.69759e-05
2.51103e-05
8.93134e-05
2.55458e-05
9.16003e-05
2.59699e-05
9.38228e-05
2.63799e-05
9.59661e-05
2.6773e-05
9.80149e-05
2.71466e-05
9.99537e-05
2.7498e-05
0.000101767
2.78244e-05
0.00010344
2.81236e-05
0.000104957
2.83933e-05
0.000106306
2.86319e-05
0.000107473
2.8838e-05
0.000108447
2.90108e-05
0.00010922
2.91501e-05
0.000109783
2.92563e-05
0.000110132
2.93304e-05
0.000110264
2.93739e-05
0.000110176
2.93891e-05
0.000109871
2.93786e-05
0.00010935
2.93457e-05
0.000108617
2.92937e-05
0.000107675
2.92262e-05
0.000106529
2.91466e-05
0.000105183
2.90584e-05
0.000103638
2.89643e-05
0.000101898
2.88668e-05
9.99585e-05
2.87673e-05
9.78172e-05
2.86666e-05
9.54666e-05
2.85643e-05
9.28965e-05
2.84591e-05
9.00936e-05
2.83485e-05
8.70411e-05
2.82291e-05
8.37198e-05
2.80964e-05
8.01076e-05
2.7945e-05
7.61804e-05
2.77688e-05
7.19124e-05
2.75609e-05
6.72764e-05
2.73139e-05
6.22441e-05
2.70199e-05
5.67865e-05
2.66709e-05
5.0874e-05
2.62582e-05
4.44766e-05
2.57733e-05
3.75634e-05
3.0103e-05
2.52075e-05
1.05384e-08
1.89345e-07
4.24199e-08
5.84781e-07
9.63731e-08
1.00686e-06
1.73104e-07
1.45692e-06
2.7329e-07
1.93632e-06
3.97571e-07
2.44645e-06
5.46542e-07
2.98873e-06
7.20748e-07
3.56457e-06
9.20669e-07
4.17542e-06
1.14672e-06
4.82271e-06
1.39922e-06
5.50787e-06
1.67842e-06
6.23231e-06
1.98445e-06
6.99739e-06
2.31733e-06
7.80445e-06
2.67698e-06
8.65476e-06
3.06314e-06
9.54954e-06
3.47545e-06
1.04899e-05
3.91339e-06
1.14769e-05
4.37627e-06
1.25114e-05
4.86323e-06
1.35943e-05
5.37327e-06
1.47261e-05
5.9052e-06
1.59074e-05
6.45766e-06
1.71386e-05
7.02914e-06
1.84198e-05
7.61797e-06
1.97511e-05
8.22233e-06
2.11323e-05
8.8403e-06
2.25631e-05
9.46983e-06
2.4043e-05
1.01088e-05
2.55714e-05
1.07551e-05
2.71474e-05
1.14065e-05
2.87703e-05
1.20608e-05
3.0439e-05
1.2716e-05
3.21525e-05
1.337e-05
3.39097e-05
1.40211e-05
3.57095e-05
1.46675e-05
3.75508e-05
1.53078e-05
3.94326e-05
1.59409e-05
4.1354e-05
1.65658e-05
4.33141e-05
1.71818e-05
4.53121e-05
1.77887e-05
4.73475e-05
1.83864e-05
4.94196e-05
1.89753e-05
5.15281e-05
1.95558e-05
5.36724e-05
2.01288e-05
5.5852e-05
2.0695e-05
5.80663e-05
2.12555e-05
6.03144e-05
2.18115e-05
6.2595e-05
2.2364e-05
6.49066e-05
2.29139e-05
6.72469e-05
2.3462e-05
6.96129e-05
2.40089e-05
7.20007e-05
2.45549e-05
7.44057e-05
2.50999e-05
7.6822e-05
2.56434e-05
7.92426e-05
2.61847e-05
8.16595e-05
2.67225e-05
8.40631e-05
2.72554e-05
8.64431e-05
2.77812e-05
8.87875e-05
2.82978e-05
9.10837e-05
2.88026e-05
9.3318e-05
2.9293e-05
9.54757e-05
2.97659e-05
9.75419e-05
3.02186e-05
9.95011e-05
3.0648e-05
0.000101338
3.10513e-05
0.000103036
3.1426e-05
0.000104583
3.17697e-05
0.000105962
3.20804e-05
0.000107162
3.23567e-05
0.000108171
3.25977e-05
0.000108979
3.28028e-05
0.000109578
3.29725e-05
0.000109963
3.31077e-05
0.000110129
3.32099e-05
0.000110074
3.32814e-05
0.0001098
3.33251e-05
0.000109306
3.33441e-05
0.000108598
3.33421e-05
0.000107677
3.33227e-05
0.000106548
3.32898e-05
0.000105215
3.3247e-05
0.000103681
3.31973e-05
0.000101947
3.31434e-05
0.000100012
3.30871e-05
9.78735e-05
3.30293e-05
9.55244e-05
3.29699e-05
9.2956e-05
3.29076e-05
9.01558e-05
3.28402e-05
8.71085e-05
3.27642e-05
8.37958e-05
3.2675e-05
8.01968e-05
3.25671e-05
7.62883e-05
3.24342e-05
7.20453e-05
3.22692e-05
6.74414e-05
3.20643e-05
6.2449e-05
3.18112e-05
5.70395e-05
3.15015e-05
5.11838e-05
3.11261e-05
4.4852e-05
3.0676e-05
3.80135e-05
3.06371e-05
3.01418e-05
1.03744e-08
1.7897e-07
4.18134e-08
5.53342e-07
9.50946e-08
9.53582e-07
1.70981e-07
1.38104e-06
2.70215e-07
1.83709e-06
3.93512e-07
2.32316e-06
5.41551e-07
2.84069e-06
7.1497e-07
3.39115e-06
9.14356e-07
3.97604e-06
1.14023e-06
4.59684e-06
1.39306e-06
5.25505e-06
1.67321e-06
5.95216e-06
1.98097e-06
6.68963e-06
2.31652e-06
7.4689e-06
2.67992e-06
8.29136e-06
3.07114e-06
9.15833e-06
3.48996e-06
1.00711e-05
3.93607e-06
1.10308e-05
4.40897e-06
1.20385e-05
4.90801e-06
1.30952e-05
5.43238e-06
1.42017e-05
5.98108e-06
1.53587e-05
6.55296e-06
1.65667e-05
7.14668e-06
1.78261e-05
7.76074e-06
1.91371e-05
8.39348e-06
2.04996e-05
9.04309e-06
2.19135e-05
9.70766e-06
2.33784e-05
1.03851e-05
2.48939e-05
1.10734e-05
2.64592e-05
1.17703e-05
2.80734e-05
1.24736e-05
2.97357e-05
1.31812e-05
3.14449e-05
1.38909e-05
3.32e-05
1.46009e-05
3.49996e-05
1.53092e-05
3.68425e-05
1.60141e-05
3.87277e-05
1.67143e-05
4.06538e-05
1.74085e-05
4.26199e-05
1.80958e-05
4.46248e-05
1.87756e-05
4.66676e-05
1.94476e-05
4.87476e-05
2.01118e-05
5.08639e-05
2.07684e-05
5.30158e-05
2.14178e-05
5.52025e-05
2.20609e-05
5.74232e-05
2.26984e-05
5.96769e-05
2.33313e-05
6.19622e-05
2.39605e-05
6.42774e-05
2.4587e-05
6.66204e-05
2.52115e-05
6.89884e-05
2.58346e-05
7.13776e-05
2.64566e-05
7.37837e-05
2.70775e-05
7.62011e-05
2.76969e-05
7.86232e-05
2.83142e-05
8.10422e-05
2.89281e-05
8.34492e-05
2.95371e-05
8.58341e-05