/*--------------------------------*- C++ -*----------------------------------*\
| =========                 |                                                 |
| \\      /  F ield         | OpenFOAM: The Open Source CFD Toolbox           |
|  \\    /   O peration     | Version:  2406                                  |
|   \\  /    A nd           | Website:  www.openfoam.com                      |
|    \\/     M anipulation  |                                                 |
\*---------------------------------------------------------------------------*/
FoamFile
{
    version     2.0;
    format      ascii;
    arch        "LSB;label=32;scalar=64";
    class       volVectorField;
    location    "24.9";
    object      U;
}
// * * * * * * * * * * * * * * * * * * * * * * * * * * * * * * * * * * * * * //

dimensions      [0 1 -1 0 0 0 0];

internalField   nonuniform List<vector> 
40000
(
(2.48777e-06 0.00447732 0)
(1.5048e-05 0.0133674 0)
(4.26435e-05 0.02229 0)
(8.38108e-05 0.0312386 0)
(0.000137018 0.0402061 0)
(0.000201208 0.0491848 0)
(0.000275261 0.0581664 0)
(0.000357832 0.0671422 0)
(0.000447371 0.0761027 0)
(0.000542146 0.0850379 0)
(0.00064024 0.0939375 0)
(0.000739551 0.10279 0)
(0.0008378 0.111586 0)
(0.000932535 0.120311 0)
(0.00102114 0.128956 0)
(0.00110086 0.137508 0)
(0.0011688 0.145954 0)
(0.00122197 0.154285 0)
(0.0012573 0.162488 0)
(0.00127166 0.170552 0)
(0.00126192 0.178468 0)
(0.00122497 0.186226 0)
(0.00115775 0.193818 0)
(0.00105732 0.201237 0)
(0.000920909 0.208477 0)
(0.000745913 0.215535 0)
(0.000529996 0.222407 0)
(0.000271104 0.229094 0)
(-3.24844e-05 0.235595 0)
(-0.000382122 0.241915 0)
(-0.000778761 0.248056 0)
(-0.00122293 0.254026 0)
(-0.00171472 0.259831 0)
(-0.00225376 0.265482 0)
(-0.00283924 0.270986 0)
(-0.00346994 0.276356 0)
(-0.0041442 0.281601 0)
(-0.00485999 0.286731 0)
(-0.00561496 0.291757 0)
(-0.00640647 0.296686 0)
(-0.00723163 0.301527 0)
(-0.00808739 0.306284 0)
(-0.0089706 0.310959 0)
(-0.00987801 0.315552 0)
(-0.0108064 0.32006 0)
(-0.0117525 0.324475 0)
(-0.0127133 0.328787 0)
(-0.0136856 0.332983 0)
(-0.0146665 0.337043 0)
(-0.0156532 0.340949 0)
(-0.0166431 0.344674 0)
(-0.0176334 0.348191 0)
(-0.0186217 0.351471 0)
(-0.0196057 0.354481 0)
(-0.020583 0.357186 0)
(-0.0215512 0.359552 0)
(-0.0225084 0.361541 0)
(-0.0234523 0.363117 0)
(-0.024381 0.364244 0)
(-0.0252925 0.364888 0)
(-0.0261851 0.365015 0)
(-0.0270574 0.364594 0)
(-0.0279079 0.3636 0)
(-0.0287358 0.362008 0)
(-0.0295402 0.359802 0)
(-0.0303209 0.356968 0)
(-0.0310782 0.353503 0)
(-0.0318126 0.349405 0)
(-0.0325252 0.344685 0)
(-0.0332177 0.339357 0)
(-0.0338923 0.333445 0)
(-0.0345515 0.326978 0)
(-0.0351984 0.319993 0)
(-0.0358364 0.312531 0)
(-0.0364691 0.304637 0)
(-0.0371004 0.296359 0)
(-0.0377341 0.287747 0)
(-0.0383742 0.278848 0)
(-0.0390241 0.269707 0)
(-0.0396872 0.260365 0)
(-0.0403665 0.250857 0)
(-0.0410645 0.24121 0)
(-0.0417833 0.231444 0)
(-0.0425244 0.221568 0)
(-0.0432889 0.211587 0)
(-0.0440776 0.201494 0)
(-0.044891 0.191277 0)
(-0.0457294 0.180918 0)
(-0.0465931 0.170393 0)
(-0.0474825 0.159678 0)
(-0.0483983 0.148746 0)
(-0.0493414 0.13757 0)
(-0.0503134 0.126125 0)
(-0.0513162 0.114388 0)
(-0.0523524 0.102339 0)
(-0.0534251 0.0899615 0)
(-0.054538 0.0772412 0)
(-0.0556954 0.0641671 0)
(-0.0569018 0.0507306 0)
(-0.0581624 0.036925 0)
(3.28422e-06 0.00439164 0)
(2.02154e-05 0.0131236 0)
(5.79099e-05 0.0219001 0)
(0.000114871 0.0307154 0)
(0.000189569 0.0395634 0)
(0.000281166 0.048437 0)
(0.000388797 0.0573287 0)
(0.000511345 0.0662304 0)
(0.000647477 0.0751333 0)
(0.000795665 0.084028 0)
(0.000954185 0.0929044 0)
(0.00112111 0.101752 0)
(0.00129432 0.11056 0)
(0.00147149 0.119316 0)
(0.00165012 0.12801 0)
(0.00182752 0.136628 0)
(0.00200085 0.145159 0)
(0.00216712 0.153591 0)
(0.00232323 0.161911 0)
(0.00246598 0.170108 0)
(0.00259213 0.17817 0)
(0.00269842 0.186087 0)
(0.00278159 0.19385 0)
(0.00283846 0.201449 0)
(0.00286597 0.208878 0)
(0.00286122 0.216129 0)
(0.00282153 0.223199 0)
(0.00274445 0.230085 0)
(0.0026279 0.236785 0)
(0.0024701 0.2433 0)
(0.00226969 0.249632 0)
(0.00202575 0.255786 0)
(0.00173779 0.261766 0)
(0.0014058 0.26758 0)
(0.00103025 0.273236 0)
(0.000612082 0.278742 0)
(0.000152669 0.284109 0)
(-0.000346178 0.289347 0)
(-0.000882272 0.294463 0)
(-0.00145309 0.299467 0)
(-0.00205585 0.304365 0)
(-0.00268754 0.309163 0)
(-0.00334501 0.313865 0)
(-0.00402505 0.31847 0)
(-0.0047244 0.322976 0)
(-0.00543987 0.327377 0)
(-0.00616837 0.331664 0)
(-0.00690692 0.335824 0)
(-0.00765273 0.33984 0)
(-0.00840317 0.343693 0)
(-0.00915584 0.34736 0)
(-0.00990851 0.350812 0)
(-0.0106592 0.354023 0)
(-0.0114059 0.356959 0)
(-0.0121472 0.359587 0)
(-0.0128813 0.361873 0)
(-0.0136071 0.36378 0)
(-0.0143232 0.365273 0)
(-0.0150287 0.366316 0)
(-0.0157225 0.366874 0)
(-0.016404 0.366916 0)
(-0.0170727 0.366412 0)
(-0.0177282 0.365334 0)
(-0.0183705 0.363662 0)
(-0.0189997 0.361377 0)
(-0.0196163 0.358469 0)
(-0.0202212 0.354933 0)
(-0.0208154 0.35077 0)
(-0.0214003 0.345989 0)
(-0.0219778 0.340607 0)
(-0.0225496 0.334646 0)
(-0.0231182 0.328137 0)
(-0.0236858 0.321116 0)
(-0.024255 0.313625 0)
(-0.0248283 0.305708 0)
(-0.0254083 0.297413 0)
(-0.0259975 0.28879 0)
(-0.0265979 0.279884 0)
(-0.0272118 0.27074 0)
(-0.0278408 0.261398 0)
(-0.0284862 0.251893 0)
(-0.0291494 0.242251 0)
(-0.029831 0.23249 0)
(-0.0305317 0.222621 0)
(-0.031252 0.212646 0)
(-0.0319924 0.202559 0)
(-0.0327532 0.192348 0)
(-0.0335351 0.181994 0)
(-0.0343391 0.171475 0)
(-0.0351663 0.160766 0)
(-0.0360185 0.149841 0)
(-0.036898 0.138673 0)
(-0.0378077 0.127239 0)
(-0.0387508 0.115515 0)
(-0.0397314 0.103482 0)
(-0.0407541 0.0911231 0)
(-0.0418239 0.078425 0)
(-0.0429465 0.0653768 0)
(-0.0441276 0.0519699 0)
(-0.0453737 0.0381978 0)
(3.99208e-06 0.00428503 0)
(2.48322e-05 0.0128171 0)
(7.159e-05 0.0214053 0)
(0.000142765 0.0300451 0)
(0.000236864 0.0387308 0)
(0.000353279 0.0474564 0)
(0.000491409 0.0562152 0)
(0.000650388 0.0649998 0)
(0.000829118 0.073802 0)
(0.0010263 0.0826132 0)
(0.00124044 0.0914238 0)
(0.00146982 0.100224 0)
(0.00171251 0.109003 0)
(0.00196636 0.117749 0)
(0.00222903 0.126452 0)
(0.00249794 0.135098 0)
(0.00277037 0.143675 0)
(0.00304337 0.152172 0)
(0.00331388 0.160575 0)
(0.00357867 0.168871 0)
(0.00383446 0.17705 0)
(0.00407786 0.185098 0)
(0.00430548 0.193006 0)
(0.00451395 0.200763 0)
(0.00469996 0.208359 0)
(0.00486033 0.215787 0)
(0.00499205 0.22304 0)
(0.00509233 0.230113 0)
(0.00515868 0.237002 0)
(0.00518891 0.243707 0)
(0.00518125 0.250226 0)
(0.00513432 0.256562 0)
(0.00504721 0.262718 0)
(0.00491948 0.2687 0)
(0.0047512 0.274513 0)
(0.00454293 0.280164 0)
(0.00429572 0.285663 0)
(0.00401107 0.291017 0)
(0.00369093 0.296235 0)
(0.00333761 0.301325 0)
(0.00295376 0.306294 0)
(0.00254227 0.311147 0)
(0.0021062 0.315889 0)
(0.00164876 0.320519 0)
(0.00117313 0.325037 0)
(0.000682507 0.329438 0)
(0.000179939 0.333714 0)
(-0.000331672 0.337853 0)
(-0.000849633 0.34184 0)
(-0.0013715 0.345656 0)
(-0.00189508 0.34928 0)
(-0.00241848 0.352685 0)
(-0.00294007 0.355845 0)
(-0.00345849 0.358727 0)
(-0.00397264 0.3613 0)
(-0.00448168 0.363528 0)
(-0.00498498 0.365378 0)
(-0.00548214 0.366813 0)
(-0.00597297 0.367799 0)
(-0.00645746 0.368301 0)
(-0.00693581 0.368288 0)
(-0.00740842 0.367731 0)
(-0.00787586 0.366603 0)
(-0.00833892 0.364883 0)
(-0.00879858 0.362554 0)
(-0.00925599 0.359604 0)
(-0.00971248 0.356031 0)
(-0.0101696 0.351834 0)
(-0.010629 0.347025 0)
(-0.0110925 0.341617 0)
(-0.0115618 0.335636 0)
(-0.0120386 0.329111 0)
(-0.0125249 0.322077 0)
(-0.0130223 0.314577 0)
(-0.0135323 0.306655 0)
(-0.0140562 0.298358 0)
(-0.0145952 0.289734 0)
(-0.0151499 0.280829 0)
(-0.0157209 0.271688 0)
(-0.0163085 0.26235 0)
(-0.0169127 0.252848 0)
(-0.0175334 0.243208 0)
(-0.0181703 0.23345 0)
(-0.0188233 0.223584 0)
(-0.0194923 0.213611 0)
(-0.0201774 0.203526 0)
(-0.0208791 0.193317 0)
(-0.0215985 0.182967 0)
(-0.0223369 0.172452 0)
(-0.0230966 0.161749 0)
(-0.0238803 0.150832 0)
(-0.0246916 0.139676 0)
(-0.0255344 0.128256 0)
(-0.0264137 0.11655 0)
(-0.0273348 0.104539 0)
(-0.0283037 0.0922064 0)
(-0.0293268 0.0795392 0)
(-0.030411 0.0665263 0)
(-0.0315634 0.0531593 0)
(-0.0327917 0.0394312 0)
(4.61071e-06 0.00416105 0)
(2.88908e-05 0.0124583 0)
(8.36543e-05 0.0208229 0)
(0.000167426 0.0292509 0)
(0.000278776 0.0377379 0)
(0.000417336 0.0462785 0)
(0.000582776 0.0548668 0)
(0.00077449 0.0634964 0)
(0.000991635 0.0721598 0)
(0.00123317 0.080849 0)
(0.00149784 0.0895554 0)
(0.00178416 0.0982695 0)
(0.00209045 0.106981 0)
(0.00241477 0.115679 0)
(0.00275496 0.124353 0)
(0.00310863 0.13299 0)
(0.00347318 0.141578 0)
(0.0038458 0.150105 0)
(0.00422349 0.158557 0)
(0.00460308 0.166921 0)
(0.00498127 0.175185 0)
(0.00535463 0.183337 0)
(0.00571968 0.191363 0)
(0.00607291 0.199252 0)
(0.0064108 0.206994 0)
(0.00672995 0.214579 0)
(0.00702704 0.221998 0)
(0.00729896 0.229245 0)
(0.00754284 0.236313 0)
(0.0077561 0.243199 0)
(0.00793651 0.2499 0)
(0.00808224 0.256417 0)
(0.00819193 0.262749 0)
(0.00826467 0.2689 0)
(0.00830008 0.274875 0)
(0.00829827 0.280678 0)
(0.0082599 0.286316 0)
(0.0081861 0.291797 0)
(0.00807849 0.297128 0)
(0.00793912 0.302316 0)
(0.0077704 0.307369 0)
(0.00757505 0.31229 0)
(0.00735601 0.317085 0)
(0.00711639 0.321755 0)
(0.00685932 0.3263 0)
(0.00658794 0.330715 0)
(0.00630526 0.334994 0)
(0.00601414 0.339127 0)
(0.00571718 0.343099 0)
(0.00541671 0.346895 0)
(0.00511473 0.350492 0)
(0.0048129 0.353867 0)
(0.0045125 0.356993 0)
(0.0042145 0.35984 0)
(0.00391948 0.362376 0)
(0.00362772 0.364569 0)
(0.00333918 0.366383 0)
(0.00305354 0.367784 0)
(0.00277022 0.368738 0)
(0.00248839 0.36921 0)
(0.00220701 0.36917 0)
(0.00192484 0.368588 0)
(0.00164047 0.367439 0)
(0.00135232 0.365701 0)
(0.0010587 0.363357 0)
(0.000757797 0.360397 0)
(0.000447917 0.356816 0)
(0.000127612 0.352615 0)
(-0.000206245 0.347804 0)
(-0.000555437 0.342398 0)
(-0.000920273 0.336422 0)
(-0.00130271 0.329903 0)
(-0.00170409 0.322878 0)
(-0.00212531 0.315388 0)
(-0.00256692 0.307476 0)
(-0.00302911 0.299189 0)
(-0.00351171 0.290574 0)
(-0.0040142 0.281678 0)
(-0.00453572 0.272544 0)
(-0.0050752 0.263212 0)
(-0.0056314 0.253714 0)
(-0.00620302 0.244077 0)
(-0.00678888 0.234319 0)
(-0.00738803 0.224452 0)
(-0.00799987 0.214479 0)
(-0.00862433 0.204393 0)
(-0.00926198 0.194184 0)
(-0.0099141 0.183834 0)
(-0.0105828 0.173323 0)
(-0.0112709 0.162626 0)
(-0.0119824 0.151719 0)
(-0.0127218 0.140576 0)
(-0.0134945 0.129174 0)
(-0.0143066 0.117492 0)
(-0.0151649 0.105509 0)
(-0.0160767 0.0932109 0)
(-0.0170497 0.0805829 0)
(-0.0180921 0.0676145 0)
(-0.0192125 0.054297 0)
(-0.0204196 0.0406235 0)
(5.14125e-06 0.00402306 0)
(3.23954e-05 0.012057 0)
(9.41106e-05 0.0201688 0)
(0.000188861 0.0283553 0)
(0.000315305 0.0366129 0)
(0.000473315 0.0449371 0)
(0.000662836 0.0533229 0)
(0.000883528 0.0617647 0)
(0.00113482 0.070256 0)
(0.00141593 0.0787896 0)
(0.00172587 0.0873574 0)
(0.00206345 0.0959508 0)
(0.0024272 0.10456 0)
(0.00281546 0.113176 0)
(0.00322629 0.121786 0)
(0.00365751 0.130379 0)
(0.00410673 0.138944 0)
(0.00457129 0.147467 0)
(0.00504832 0.155935 0)
(0.00553476 0.164336 0)
(0.00602735 0.172656 0)
(0.00652268 0.180881 0)
(0.00701724 0.188998 0)
(0.00750742 0.196995 0)
(0.00798958 0.20486 0)
(0.0084601 0.212582 0)
(0.00891545 0.220149 0)
(0.0093522 0.227554 0)
(0.00976714 0.234787 0)
(0.0101573 0.241845 0)
(0.01052 0.248721 0)
(0.0108531 0.255412 0)
(0.0111545 0.261919 0)
(0.011423 0.26824 0)
(0.0116577 0.274379 0)
(0.0118582 0.280339 0)
(0.0120246 0.286124 0)
(0.0121578 0.291741 0)
(0.0122588 0.297195 0)
(0.0123295 0.302494 0)
(0.0123719 0.307642 0)
(0.0123886 0.312645 0)
(0.0123822 0.317508 0)
(0.0123557 0.322231 0)
(0.0123122 0.326817 0)
(0.0122547 0.331261 0)
(0.0121863 0.335558 0)
(0.0121096 0.339699 0)
(0.0120273 0.343672 0)
(0.0119416 0.347462 0)
(0.0118543 0.351048 0)
(0.011767 0.354408 0)
(0.0116807 0.357517 0)
(0.011596 0.360346 0)
(0.0115131 0.362865 0)
(0.0114317 0.36504 0)
(0.0113513 0.36684 0)
(0.0112709 0.368228 0)
(0.0111893 0.369172 0)
(0.0111048 0.369638 0)
(0.0110156 0.369595 0)
(0.0109198 0.369014 0)
(0.0108152 0.367869 0)
(0.0106994 0.36614 0)
(0.0105701 0.363809 0)
(0.0104249 0.360864 0)
(0.0102614 0.357302 0)
(0.0100776 0.353123 0)
(0.00987102 0.348336 0)
(0.00963985 0.342956 0)
(0.00938291 0.337006 0)
(0.00909895 0.330515 0)
(0.00878722 0.323518 0)
(0.00844752 0.316053 0)
(0.00808014 0.308165 0)
(0.00768589 0.2999 0)
(0.00726605 0.291305 0)
(0.00682235 0.282425 0)
(0.00635688 0.273303 0)
(0.00587195 0.263979 0)
(0.00536997 0.254486 0)
(0.0048533 0.244851 0)
(0.00432401 0.235093 0)
(0.00378379 0.225223 0)
(0.00323371 0.215246 0)
(0.00267408 0.205157 0)
(0.0021043 0.194946 0)
(0.0015228 0.184596 0)
(0.000926988 0.174087 0)
(0.000313546 0.163397 0)
(-0.00032289 0.152501 0)
(-0.000988048 0.141375 0)
(-0.00168784 0.129996 0)
(-0.00243 0.118341 0)
(-0.00322263 0.106394 0)
(-0.00407433 0.0941363 0)
(-0.00499423 0.0815555 0)
(-0.00599181 0.0686403 0)
(-0.00707687 0.0553818 0)
(-0.00825941 0.0417728 0)
(5.58641e-06 0.00387417 0)
(3.53603e-05 0.0116225 0)
(0.000102996 0.0194583 0)
(0.000207137 0.0273791 0)
(0.000346549 0.0353822 0)
(0.000521346 0.0434641 0)
(0.000731743 0.0516206 0)
(0.000977674 0.059847 0)
(0.00125883 0.0681376 0)
(0.00157473 0.0764862 0)
(0.00192466 0.0848855 0)
(0.00230769 0.0933276 0)
(0.00272266 0.101804 0)
(0.00316816 0.110304 0)
(0.00364254 0.118819 0)
(0.00414386 0.127337 0)
(0.00466995 0.135846 0)
(0.00521838 0.144334 0)
(0.00578646 0.152788 0)
(0.00637126 0.161194 0)
(0.00696966 0.169539 0)
(0.00757831 0.17781 0)
(0.00819371 0.185991 0)
(0.00881225 0.194071 0)
(0.0094302 0.202034 0)
(0.0100438 0.20987 0)
(0.0106494 0.217566 0)
(0.0112432 0.225111 0)
(0.0118217 0.232496 0)
(0.0123817 0.239712 0)
(0.01292 0.246753 0)
(0.013434 0.253613 0)
(0.0139212 0.26029 0)
(0.0143799 0.26678 0)
(0.0148086 0.273085 0)
(0.0152065 0.279204 0)
(0.0155731 0.285142 0)
(0.0159088 0.290903 0)
(0.0162143 0.296489 0)
(0.0164908 0.301908 0)
(0.0167402 0.307164 0)
(0.0169645 0.312262 0)
(0.0171664 0.317206 0)
(0.0173485 0.321998 0)
(0.0175138 0.326638 0)
(0.0176652 0.331125 0)
(0.0178056 0.335455 0)
(0.0179378 0.33962 0)
(0.0180642 0.343608 0)
(0.0181872 0.347406 0)
(0.0183084 0.350996 0)
(0.0184292 0.354357 0)
(0.0185506 0.357464 0)
(0.0186727 0.360291 0)
(0.0187956 0.362809 0)
(0.0189186 0.364985 0)
(0.0190407 0.366787 0)
(0.0191602 0.368181 0)
(0.0192754 0.369135 0)
(0.019384 0.369616 0)
(0.0194835 0.369592 0)
(0.0195712 0.369034 0)
(0.0196442 0.367917 0)
(0.0196994 0.36622 0)
(0.019734 0.363925 0)
(0.0197448 0.36102 0)
(0.0197292 0.357501 0)
(0.0196844 0.353367 0)
(0.0196081 0.348626 0)
(0.0194984 0.343294 0)
(0.0193539 0.337391 0)
(0.0191737 0.330946 0)
(0.0189574 0.323993 0)
(0.0187055 0.31657 0)
(0.0184189 0.308719 0)
(0.0180993 0.300487 0)
(0.017749 0.29192 0)
(0.0173708 0.283062 0)
(0.0169679 0.273958 0)
(0.0165437 0.264646 0)
(0.0161018 0.255159 0)
(0.0156454 0.245527 0)
(0.0151776 0.235768 0)
(0.0147006 0.225895 0)
(0.0142161 0.215913 0)
(0.0137247 0.205819 0)
(0.0132257 0.195604 0)
(0.0127174 0.185253 0)
(0.0121968 0.174747 0)
(0.0116596 0.164064 0)
(0.0111002 0.153181 0)
(0.0105117 0.142074 0)
(0.00988683 0.130721 0)
(0.00921674 0.1191 0)
(0.00849212 0.107193 0)
(0.00770302 0.0949831 0)
(0.006839 0.0824569 0)
(0.00588925 0.0696031 0)
(0.00484266 0.0564125 0)
(0.00368791 0.0428773 0)
(5.95005e-06 0.00371722 0)
(3.78075e-05 0.0111631 0)
(0.000110369 0.018705 0)
(0.000222367 0.0263413 0)
(0.000372686 0.0340702 0)
(0.000561679 0.041889 0)
(0.000789826 0.0497943 0)
(0.00105733 0.0577824 0)
(0.00136416 0.0658485 0)
(0.0017101 0.0739871 0)
(0.00209475 0.082192 0)
(0.00251747 0.0904561 0)
(0.0029774 0.0987714 0)
(0.00347342 0.107129 0)
(0.00400416 0.11552 0)
(0.00456799 0.123933 0)
(0.00516298 0.132357 0)
(0.00578697 0.14078 0)
(0.00643749 0.149189 0)
(0.00711182 0.157572 0)
(0.00780699 0.165914 0)
(0.0085198 0.174201 0)
(0.00924684 0.18242 0)
(0.00998451 0.190555 0)
(0.0107291 0.198594 0)
(0.0114767 0.206521 0)
(0.0122236 0.214324 0)
(0.0129658 0.221991 0)
(0.0136996 0.22951 0)
(0.0144214 0.236871 0)
(0.0151277 0.244066 0)
(0.0158154 0.251085 0)
(0.0164816 0.257925 0)
(0.0171241 0.264581 0)
(0.0177408 0.27105 0)
(0.0183304 0.277331 0)
(0.018892 0.283425 0)
(0.0194252 0.289335 0)
(0.0199303 0.295062 0)
(0.0204082 0.300611 0)
(0.0208601 0.305986 0)
(0.0212878 0.31119 0)
(0.0216936 0.316228 0)
(0.0220798 0.321101 0)
(0.0224493 0.325811 0)
(0.0228047 0.330356 0)
(0.0231491 0.334732 0)
(0.0234849 0.338934 0)
(0.0238148 0.342952 0)
(0.0241408 0.346773 0)
(0.0244648 0.350381 0)
(0.024788 0.353756 0)
(0.0251111 0.356876 0)
(0.0254344 0.359716 0)
(0.0257575 0.362247 0)
(0.0260795 0.364439 0)
(0.026399 0.36626 0)
(0.0267139 0.367678 0)
(0.0270219 0.368659 0)
(0.0273202 0.369172 0)
(0.0276057 0.369186 0)
(0.0278749 0.368671 0)
(0.0281243 0.367603 0)
(0.0283504 0.365958 0)
(0.0285494 0.36372 0)
(0.0287178 0.360876 0)
(0.0288523 0.35742 0)
(0.02895 0.353352 0)
(0.0290081 0.348679 0)
(0.0290245 0.343413 0)
(0.0289979 0.337576 0)
(0.0289275 0.331194 0)
(0.0288132 0.324301 0)
(0.0286559 0.316933 0)
(0.0284572 0.309133 0)
(0.0282195 0.300945 0)
(0.0279459 0.292414 0)
(0.0276401 0.283587 0)
(0.0273064 0.274505 0)
(0.0269492 0.265208 0)
(0.026573 0.255731 0)
(0.026182 0.246103 0)
(0.0257801 0.236343 0)
(0.0253703 0.226467 0)
(0.0249546 0.216479 0)
(0.024534 0.206379 0)
(0.024108 0.19616 0)
(0.0236748 0.185807 0)
(0.023231 0.175304 0)
(0.0227717 0.164629 0)
(0.0222906 0.153761 0)
(0.0217801 0.142676 0)
(0.0212316 0.131353 0)
(0.0206353 0.11977 0)
(0.0199806 0.107908 0)
(0.0192563 0.0957519 0)
(0.0184507 0.0832873 0)
(0.0175515 0.0705026 0)
(0.0165464 0.0573881 0)
(0.0154226 0.0439358 0)
(6.23687e-06 0.00355477 0)
(3.97647e-05 0.0106864 0)
(0.000116308 0.0179215 0)
(0.000234699 0.0252595 0)
(0.000393956 0.0326992 0)
(0.000594659 0.0402387 0)
(0.000837545 0.0478757 0)
(0.00112308 0.055607 0)
(0.0014515 0.063429 0)
(0.00182289 0.071337 0)
(0.00223712 0.0793257 0)
(0.00269387 0.087389 0)
(0.00319258 0.0955197 0)
(0.00373244 0.10371 0)
(0.0043124 0.111951 0)
(0.00493112 0.120232 0)
(0.00558699 0.128544 0)
(0.00627812 0.136875 0)
(0.00700232 0.145213 0)
(0.00775712 0.153544 0)
(0.00853977 0.161855 0)
(0.00934723 0.170132 0)
(0.0101763 0.178361 0)
(0.0110233 0.186526 0)
(0.0118848 0.194614 0)
(0.0127568 0.202609 0)
(0.0136355 0.210498 0)
(0.0145168 0.218267 0)
(0.0153967 0.225902 0)
(0.0162715 0.233392 0)
(0.0171373 0.240726 0)
(0.0179906 0.247894 0)
(0.0188282 0.254889 0)
(0.0196472 0.261704 0)
(0.0204452 0.268333 0)
(0.0212202 0.274775 0)
(0.0219707 0.281027 0)
(0.0226959 0.28709 0)
(0.0233955 0.292964 0)
(0.0240698 0.298651 0)
(0.0247195 0.304154 0)
(0.0253461 0.309476 0)
(0.0259513 0.314619 0)
(0.0265372 0.319587 0)
(0.0271064 0.324379 0)
(0.0276615 0.328995 0)
(0.028205 0.333432 0)
(0.0287398 0.337685 0)
(0.0292681 0.341746 0)
(0.0297921 0.345603 0)
(0.0303136 0.349243 0)
(0.0308339 0.352646 0)
(0.0313536 0.355792 0)
(0.0318728 0.358658 0)
(0.0323912 0.361216 0)
(0.0329074 0.363437 0)
(0.0334199 0.365291 0)
(0.0339263 0.366747 0)
(0.0344237 0.367771 0)
(0.0349089 0.368332 0)
(0.0353783 0.3684 0)
(0.0358278 0.367945 0)
(0.0362533 0.366942 0)
(0.0366505 0.365369 0)
(0.0370153 0.363206 0)
(0.0373436 0.360441 0)
(0.0376315 0.357068 0)
(0.0378755 0.353084 0)
(0.0380728 0.348495 0)
(0.038221 0.343314 0)
(0.0383185 0.337559 0)
(0.0383647 0.331257 0)
(0.0383596 0.324437 0)
(0.0383044 0.317139 0)
(0.0382012 0.3094 0)
(0.038053 0.301267 0)
(0.0378636 0.292782 0)
(0.0376375 0.283992 0)
(0.0373798 0.274939 0)
(0.0370959 0.265663 0)
(0.036791 0.256199 0)
(0.0364705 0.246577 0)
(0.0361388 0.236818 0)
(0.0357998 0.226938 0)
(0.0354559 0.216945 0)
(0.0351086 0.20684 0)
(0.0347575 0.196616 0)
(0.0344008 0.186262 0)
(0.0340348 0.175762 0)
(0.0336544 0.165096 0)
(0.0332525 0.154245 0)
(0.0328209 0.143184 0)
(0.0323499 0.131893 0)
(0.0318287 0.120352 0)
(0.0312454 0.108541 0)
(0.0305878 0.0964439 0)
(0.0298427 0.0840472 0)
(0.0289966 0.0713386 0)
(0.0280357 0.058308 0)
(0.026946 0.0449468 0)
(6.45227e-06 0.0033891 0)
(4.12638e-05 0.0101991 0)
(0.000120902 0.0171191 0)
(0.000244309 0.0241493 0)
(0.000410643 0.0312891 0)
(0.000620701 0.0385376 0)
(0.000875464 0.0458932 0)
(0.00117565 0.0533537 0)
(0.00152176 0.0609161 0)
(0.00191416 0.0685769 0)
(0.00235301 0.0763316 0)
(0.0028383 0.0841748 0)
(0.00336977 0.0921006 0)
(0.00394695 0.100102 0)
(0.0045691 0.10817 0)
(0.00523521 0.116297 0)
(0.005944 0.124473 0)
(0.00669388 0.132686 0)
(0.00748297 0.140926 0)
(0.00830909 0.14918 0)
(0.00916975 0.157434 0)
(0.0100622 0.165675 0)
(0.0109833 0.173888 0)
(0.0119297 0.182058 0)
(0.0128979 0.19017 0)
(0.0138842 0.19821 0)
(0.0148845 0.206161 0)
(0.0158949 0.21401 0)
(0.0169112 0.221742 0)
(0.0179295 0.229343 0)
(0.0189455 0.236801 0)
(0.0199556 0.244105 0)
(0.0209561 0.251244 0)
(0.0219437 0.258209 0)
(0.0229154 0.264995 0)
(0.0238687 0.271594 0)
(0.0248016 0.278003 0)
(0.0257127 0.28422 0)
(0.026601 0.290244 0)
(0.0274663 0.296075 0)
(0.0283089 0.301714 0)
(0.0291295 0.307163 0)
(0.0299295 0.312423 0)
(0.0307108 0.317497 0)
(0.0314753 0.322384 0)
(0.0322255 0.327084 0)
(0.032964 0.331595 0)
(0.0336931 0.335913 0)
(0.0344152 0.34003 0)
(0.0351326 0.343936 0)
(0.0358469 0.347619 0)
(0.0365594 0.351063 0)
(0.0372709 0.354247 0)
(0.0379814 0.357151 0)
(0.0386904 0.359748 0)
(0.0393967 0.362011 0)
(0.0400982 0.36391 0)
(0.0407926 0.365416 0)
(0.0414765 0.366496 0)
(0.0421464 0.367119 0)
(0.042798 0.367255 0)
(0.043427 0.366875 0)
(0.0440286 0.365952 0)
(0.0445981 0.364465 0)
(0.0451306 0.362393 0)
(0.0456215 0.359724 0)
(0.0460664 0.356448 0)
(0.0464615 0.352565 0)
(0.0468033 0.348077 0)
(0.0470894 0.342995 0)
(0.0473178 0.337338 0)
(0.0474879 0.331129 0)
(0.0475998 0.324399 0)
(0.0476547 0.317181 0)
(0.0476552 0.309517 0)
(0.0476046 0.301448 0)
(0.0475073 0.293019 0)
(0.0473684 0.284274 0)
(0.0471939 0.275257 0)
(0.0469898 0.266007 0)
(0.0467623 0.25656 0)
(0.0465174 0.246947 0)
(0.0462604 0.237191 0)
(0.0459957 0.22731 0)
(0.0457266 0.217313 0)
(0.0454548 0.207202 0)
(0.0451803 0.196974 0)
(0.0449013 0.18662 0)
(0.0446141 0.176124 0)
(0.0443132 0.165469 0)
(0.0439911 0.154635 0)
(0.0436389 0.1436 0)
(0.043246 0.132345 0)
(0.0428007 0.120849 0)
(0.0422902 0.109093 0)
(0.0417007 0.0970604 0)
(0.0410179 0.0847374 0)
(0.0402271 0.0721114 0)
(0.039313 0.0591718 0)
(0.0382603 0.0459094 0)
(6.60194e-06 0.00322219 0)
(4.23394e-05 0.00970708 0)
(0.00012425 0.0163076 0)
(0.000251391 0.0230244 0)
(0.000423063 0.0298578 0)
(0.000640271 0.0368075 0)
(0.00090422 0.0438726 0)
(0.00121587 0.0510519 0)
(0.00157598 0.0583432 0)
(0.00198518 0.0657438 0)
(0.00244392 0.0732502 0)
(0.00295249 0.0808579 0)
(0.00351095 0.0885618 0)
(0.00411914 0.0963558 0)
(0.00477665 0.104233 0)
(0.00548283 0.112185 0)
(0.00623671 0.120202 0)
(0.00703707 0.128276 0)
(0.00788234 0.136395 0)
(0.00877067 0.144547 0)
(0.00969986 0.15272 0)
(0.0106674 0.160899 0)
(0.0116705 0.169071 0)
(0.0127061 0.177222 0)
(0.0137706 0.185334 0)
(0.0148606 0.193394 0)
(0.0159721 0.201386 0)
(0.0171011 0.209293 0)
(0.0182435 0.217101 0)
(0.019395 0.224794 0)
(0.0205515 0.232359 0)
(0.0217088 0.239783 0)
(0.022863 0.247053 0)
(0.0240104 0.254159 0)
(0.0251475 0.261092 0)
(0.0262714 0.267843 0)
(0.0273794 0.274406 0)
(0.0284695 0.280778 0)
(0.0295403 0.286954 0)
(0.0305908 0.292932 0)
(0.0316207 0.298713 0)
(0.0326302 0.304297 0)
(0.0336203 0.309682 0)
(0.0345923 0.314872 0)
(0.0355478 0.319865 0)
(0.0364889 0.324661 0)
(0.0374179 0.329258 0)
(0.0383372 0.333653 0)
(0.039249 0.337838 0)
(0.0401553 0.341806 0)
(0.0410581 0.345545 0)
(0.0419585 0.34904 0)
(0.0428574 0.352275 0)
(0.0437549 0.355227 0)
(0.0446505 0.357874 0)
(0.0455428 0.360189 0)
(0.0464299 0.362144 0)
(0.0473091 0.363711 0)
(0.0481769 0.364857 0)
(0.0490295 0.365554 0)
(0.0498622 0.365769 0)
(0.0506702 0.365475 0)
(0.0514483 0.364646 0)
(0.0521913 0.363257 0)
(0.0528936 0.36129 0)
(0.0535503 0.35873 0)
(0.0541563 0.355567 0)
(0.0547073 0.351798 0)
(0.0551995 0.347425 0)
(0.05563 0.342457 0)
(0.0559966 0.336911 0)
(0.0562983 0.330809 0)
(0.0565353 0.32418 0)
(0.0567089 0.317056 0)
(0.0568216 0.309477 0)
(0.0568772 0.301483 0)
(0.0568803 0.293119 0)
(0.0568368 0.284428 0)
(0.056753 0.275453 0)
(0.0566357 0.266236 0)
(0.0564918 0.256811 0)
(0.056328 0.247212 0)
(0.0561504 0.237462 0)
(0.0559641 0.227582 0)
(0.0557729 0.217583 0)
(0.055579 0.207469 0)
(0.0553828 0.197238 0)
(0.0551828 0.186884 0)
(0.0549751 0.176393 0)
(0.0547542 0.16575 0)
(0.0545122 0.154935 0)
(0.0542397 0.143929 0)
(0.0539254 0.132712 0)
(0.0535566 0.121264 0)
(0.0531195 0.109567 0)
(0.0525993 0.0976032 0)
(0.0519805 0.0853591 0)
(0.0512469 0.0728215 0)
(0.0503819 0.0599793 0)
(0.0493688 0.0468229 0)
(6.69183e-06 0.00305577 0)
(4.30278e-05 0.0092156 0)
(0.000126454 0.0154956 0)
(0.000256148 0.021897 0)
(0.000431555 0.0284208 0)
(0.000653866 0.0350673 0)
(0.0009245 0.0418364 0)
(0.00124464 0.0487277 0)
(0.00161529 0.0557398 0)
(0.00203733 0.0628708 0)
(0.00251149 0.070118 0)
(0.00303836 0.0774781 0)
(0.0036183 0.0849466 0)
(0.00425147 0.0925186 0)
(0.0049378 0.100188 0)
(0.00567698 0.107947 0)
(0.00646839 0.115788 0)
(0.00731116 0.123702 0)
(0.00820408 0.131679 0)
(0.00914563 0.139708 0)
(0.010134 0.147777 0)
(0.0111669 0.155872 0)
(0.0122419 0.16398 0)
(0.0133562 0.172086 0)
(0.0145066 0.180175 0)
(0.0156895 0.188232 0)
(0.0169014 0.19624 0)
(0.0181382 0.204183 0)
(0.0193958 0.212046 0)
(0.02067 0.219812 0)
(0.0219564 0.227466 0)
(0.0232508 0.234993 0)
(0.0245489 0.24238 0)
(0.0258466 0.249614 0)
(0.0271402 0.256683 0)
(0.028426 0.263578 0)
(0.0297011 0.27029 0)
(0.0309628 0.276813 0)
(0.0322091 0.28314 0)
(0.0334383 0.289268 0)
(0.0346496 0.295195 0)
(0.0358426 0.300918 0)
(0.0370176 0.306437 0)
(0.0381754 0.311751 0)
(0.0393174 0.31686 0)
(0.0404451 0.321763 0)
(0.0415606 0.326457 0)
(0.0426659 0.33094 0)
(0.0437632 0.335205 0)
(0.0448546 0.339246 0)
(0.0459418 0.343052 0)
(0.0470261 0.34661 0)
(0.0481085 0.349904 0)
(0.049189 0.352915 0)
(0.0502674 0.355621 0)
(0.0513423 0.357998 0)
(0.0524117 0.360019 0)
(0.0534728 0.361655 0)
(0.0545222 0.362878 0)
(0.0555556 0.363656 0)
(0.0565683 0.363961 0)
(0.0575551 0.363763 0)
(0.0585102 0.363037 0)
(0.059428 0.361758 0)
(0.0603026 0.359907 0)
(0.0611283 0.357467 0)
(0.0618997 0.354428 0)
(0.0626118 0.350785 0)
(0.0632604 0.346539 0)
(0.063842 0.341698 0)
(0.0643542 0.336276 0)
(0.0647957 0.330293 0)
(0.0651664 0.323776 0)
(0.0654674 0.316758 0)
(0.0657014 0.309275 0)
(0.0658722 0.301367 0)
(0.0659847 0.293077 0)
(0.0660451 0.284448 0)
(0.0660601 0.275525 0)
(0.0660371 0.266346 0)
(0.0659836 0.25695 0)
(0.065907 0.247369 0)
(0.065814 0.237631 0)
(0.0657104 0.227755 0)
(0.0656005 0.217757 0)
(0.0654873 0.207641 0)
(0.0653714 0.19741 0)
(0.0652516 0.187057 0)
(0.0651244 0.176573 0)
(0.0649839 0.165943 0)
(0.0648224 0.155149 0)
(0.0646297 0.144174 0)
(0.0643941 0.132997 0)
(0.0641022 0.1216 0)
(0.0637392 0.109965 0)
(0.0632892 0.0980743 0)
(0.0627355 0.0859136 0)
(0.0620607 0.0734696 0)
(0.0612469 0.0607308 0)
(0.0602759 0.0476867 0)
(6.72791e-06 0.00289129 0)
(4.33658e-05 0.00872903 0)
(0.000127622 0.0146905 0)
(0.000258792 0.0207775 0)
(0.000436464 0.0269915 0)
(0.000662003 0.0333336 0)
(0.000937018 0.0398044 0)
(0.0012629 0.046404 0)
(0.00164088 0.0531319 0)
(0.00207207 0.059987 0)
(0.00255749 0.0669675 0)
(0.00309798 0.0740708 0)
(0.00369421 0.0812937 0)
(0.00434666 0.0886317 0)
(0.00505559 0.0960798 0)
(0.00582102 0.103632 0)
(0.0066427 0.111281 0)
(0.0075201 0.119018 0)
(0.0084524 0.126835 0)
(0.00943844 0.134721 0)
(0.0104767 0.142664 0)
(0.0115654 0.150654 0)
(0.0127024 0.158675 0)
(0.0138851 0.166715 0)
(0.0151106 0.174758 0)
(0.0163757 0.182789 0)
(0.0176769 0.190791 0)
(0.0190104 0.198748 0)
(0.0203721 0.206644 0)
(0.0217579 0.214462 0)
(0.0231634 0.222185 0)
(0.0245841 0.229798 0)
(0.0260156 0.237285 0)
(0.0274536 0.244632 0)
(0.0288938 0.251827 0)
(0.0303325 0.258856 0)
(0.031766 0.265709 0)
(0.0331911 0.272377 0)
(0.0346052 0.278852 0)
(0.036006 0.285129 0)
(0.0373922 0.291203 0)
(0.0387626 0.29707 0)
(0.0401171 0.302727 0)
(0.0414557 0.308173 0)
(0.0427794 0.313406 0)
(0.0440892 0.318424 0)
(0.0453869 0.323225 0)
(0.0466743 0.327807 0)
(0.0479533 0.332163 0)
(0.0492258 0.336287 0)
(0.0504936 0.34017 0)
(0.0517581 0.343801 0)
(0.0530202 0.347164 0)
(0.0542803 0.350243 0)
(0.0555379 0.353017 0)
(0.056792 0.355464 0)
(0.0580407 0.357557 0)
(0.0592812 0.359271 0)
(0.0605099 0.360577 0)
(0.0617226 0.361445 0)
(0.0629143 0.361846 0)
(0.0640795 0.361753 0)
(0.0652123 0.361138 0)
(0.0663064 0.359978 0)
(0.0673556 0.358251 0)
(0.0683536 0.355941 0)
(0.0692946 0.353036 0)
(0.070173 0.349529 0)
(0.070984 0.345421 0)
(0.0717238 0.340717 0)
(0.0723892 0.335429 0)
(0.0729788 0.329576 0)
(0.0734919 0.323184 0)
(0.0739296 0.316281 0)
(0.0742943 0.308905 0)
(0.0745897 0.301093 0)
(0.0748209 0.292887 0)
(0.0749942 0.28433 0)
(0.0751167 0.275466 0)
(0.0751961 0.266334 0)
(0.0752405 0.256973 0)
(0.0752576 0.247418 0)
(0.075255 0.237695 0)
(0.075239 0.227829 0)
(0.0752146 0.217835 0)
(0.0751852 0.207721 0)
(0.075152 0.197492 0)
(0.0751143 0.187143 0)
(0.0750686 0.176667 0)
(0.0750094 0.166052 0)
(0.0749285 0.155281 0)
(0.0748159 0.144338 0)
(0.0746591 0.133204 0)
(0.0744443 0.121861 0)
(0.0741556 0.11029 0)
(0.0737765 0.098476 0)
(0.0732889 0.0864027 0)
(0.0726743 0.074057 0)
(0.0719134 0.0614267 0)
(0.0709868 0.0485007 0)
(6.71609e-06 0.00273 0)
(4.33902e-05 0.00825108 0)
(0.000127858 0.0138986 0)
(0.000259533 0.0196747 0)
(0.000438142 0.0255816 0)
(0.000665205 0.0316208 0)
(0.000942502 0.0377935 0)
(0.00127161 0.0441006 0)
(0.00165397 0.0505422 0)
(0.00209093 0.057118 0)
(0.00258374 0.063827 0)
(0.00313352 0.0706675 0)
(0.0037412 0.077637 0)
(0.00440759 0.0847322 0)
(0.00513326 0.0919489 0)
(0.00591855 0.0992818 0)
(0.00676359 0.106725 0)
(0.00766821 0.114271 0)
(0.00863195 0.121911 0)
(0.00965403 0.129637 0)
(0.0107334 0.137438 0)
(0.0118685 0.145302 0)
(0.0130575 0.153217 0)
(0.0142984 0.161169 0)
(0.0155885 0.169145 0)
(0.0169249 0.177127 0)
(0.0183044 0.185101 0)
(0.0197234 0.193051 0)
(0.0211779 0.200958 0)