/*--------------------------------*- C++ -*----------------------------------*\
| =========                 |                                                 |
| \\      /  F ield         | OpenFOAM: The Open Source CFD Toolbox           |
|  \\    /   O peration     | Version:  2406                                  |
|   \\  /    A nd           | Website:  www.openfoam.com                      |
|    \\/     M anipulation  |                                                 |
\*---------------------------------------------------------------------------*/
FoamFile
{
    version     2.0;
    format      ascii;
    arch        "LSB;label=32;scalar=64";
    class       volScalarField;
    location    "14";
    object      p;
}
// * * * * * * * * * * * * * * * * * * * * * * * * * * * * * * * * * * * * * //

dimensions      [0 2 -2 0 0 0 0];

internalField   nonuniform List<scalar> 
30000
(
4.9071545e-12
5.6528023e-12
5.8034541e-12
5.7971546e-12
5.7922358e-12
5.7830425e-12
5.7716908e-12
5.7632861e-12
5.7538448e-12
5.7404613e-12
5.7293522e-12
5.7171245e-12
5.7010953e-12
5.6841262e-12
5.6707072e-12
5.660712e-12
5.6472603e-12
5.6313461e-12
5.6195868e-12
5.5992075e-12
5.5784584e-12
5.5583191e-12
5.5369302e-12
5.5169464e-12
5.4953584e-12
5.477705e-12
5.4649138e-12
5.4501873e-12
5.4370995e-12
5.4215685e-12
5.4064678e-12
5.3910253e-12
5.3715641e-12
5.3548407e-12
5.3364836e-12
5.3157335e-12
5.2970383e-12
5.281462e-12
5.2642459e-12
5.2454689e-12
5.2223655e-12
5.2002168e-12
5.1751797e-12
5.1542919e-12
5.142301e-12
5.1213603e-12
5.1067745e-12
5.1016173e-12
5.0943051e-12
5.0819453e-12
5.0677734e-12
5.057175e-12
5.051526e-12
5.0398955e-12
5.0240907e-12
5.01568e-12
5.0101383e-12
5.009381e-12
5.0041273e-12
4.9940541e-12
4.9819077e-12
4.9717094e-12
4.9617007e-12
4.9520017e-12
4.9508302e-12
4.9408383e-12
4.938513e-12
4.9284142e-12
4.9173168e-12
4.9104383e-12
4.9030188e-12
4.8775742e-12
4.8534207e-12
4.8398186e-12
4.8218229e-12
4.7941411e-12
4.7808536e-12
4.7639975e-12
4.7374125e-12
4.7131426e-12
4.6900779e-12
4.6708859e-12
4.6433185e-12
4.6211886e-12
4.5993986e-12
4.5665752e-12
4.5506152e-12
4.5382463e-12
4.5219944e-12
4.5097548e-12
4.4966982e-12
4.4882255e-12
4.4852031e-12
4.4837758e-12
4.4826485e-12
4.4846453e-12
4.4747039e-12
4.4659459e-12
4.4668602e-12
4.4632445e-12
4.4576389e-12
4.4614701e-12
4.4693978e-12
4.4758647e-12
4.4796247e-12
4.4889733e-12
4.4952953e-12
4.4955746e-12
4.5045452e-12
4.5114688e-12
4.526871e-12
4.5399491e-12
4.5388806e-12
4.5406966e-12
4.5500855e-12
4.5691327e-12
4.5749258e-12
4.5734599e-12
4.5750871e-12
4.5834686e-12
4.5916157e-12
4.5985339e-12
4.5986306e-12
4.6157705e-12
4.6364943e-12
4.6399699e-12
4.6529759e-12
4.6703498e-12
4.6815024e-12
4.6937877e-12
4.7094894e-12
4.7234161e-12
4.7375527e-12
4.7635732e-12
4.7825626e-12
4.7881595e-12
4.8046833e-12
4.8277279e-12
4.8402619e-12
4.8620067e-12
4.8992808e-12
4.9192287e-12
4.9341622e-12
4.9490539e-12
4.9771685e-12
5.0060949e-12
5.028422e-12
5.0612464e-12
5.0879608e-12
5.0990359e-12
5.119981e-12
5.1370595e-12
5.1422732e-12
5.1711225e-12
5.1942043e-12
5.2143043e-12
5.2485019e-12
5.2672173e-12
5.2925808e-12
5.3225438e-12
5.3650909e-12
5.4004325e-12
5.427629e-12
5.4502508e-12
5.4826363e-12
5.5148264e-12
5.549895e-12
5.5924939e-12
5.6099178e-12
5.6386116e-12
5.681343e-12
5.7003358e-12
5.7378287e-12
5.7922412e-12
5.8287574e-12
5.8585421e-12
5.8844633e-12
5.9234706e-12
5.9654754e-12
5.9971514e-12
6.041627e-12
6.0774769e-12
6.1113859e-12
6.1416641e-12
6.1624383e-12
6.2080272e-12
6.2497617e-12
6.2747657e-12
6.3162742e-12
6.3553879e-12
6.3956387e-12
6.4334498e-12
6.4651653e-12
6.48305e-12
6.515547e-12
6.5668564e-12
6.6033691e-12
6.6394165e-12
6.6915586e-12
6.7257928e-12
6.7438397e-12
6.7760438e-12
6.7924845e-12
6.8235289e-12
6.8607108e-12
6.8968819e-12
6.9345905e-12
6.9582893e-12
6.9772213e-12
6.9999217e-12
7.0227045e-12
7.0527015e-12
7.0811424e-12
7.0933627e-12
7.1211787e-12
7.1343588e-12
7.1404236e-12
7.1414357e-12
7.1405893e-12
7.1421316e-12
7.1620458e-12
7.1783027e-12
7.1821277e-12
7.1848296e-12
7.1750873e-12
7.1745405e-12
7.1734078e-12
7.1721135e-12
7.1734851e-12
7.1791113e-12
7.1873586e-12
7.1889926e-12
7.1630741e-12
7.1406982e-12
7.1274661e-12
7.0989598e-12
7.0814046e-12
7.0684929e-12
7.0628004e-12
7.0439339e-12
7.032542e-12
7.0123304e-12
6.9758232e-12
6.954056e-12
6.958625e-12
6.9481775e-12
6.9285456e-12
6.9256841e-12
6.9228831e-12
6.9148037e-12
6.8957778e-12
6.8747931e-12
6.8615234e-12
6.8647854e-12
6.862351e-12
6.8414687e-12
6.8439989e-12
6.8450054e-12
6.8225927e-12
6.810469e-12
6.7969021e-12
6.783651e-12
6.7973195e-12
6.7837592e-12
6.7756515e-12
6.7660656e-12
6.7571241e-12
6.7750746e-12
6.748926e-12
6.7234007e-12
6.752844e-12
6.7519854e-12
6.727696e-12
6.7167052e-12
6.7037068e-12
6.7087983e-12
6.6847589e-12
6.6501558e-12
6.6473023e-12
6.6515815e-12
6.638838e-12
6.6171159e-12
6.592927e-12
6.5733465e-12
6.5543696e-12
6.5116415e-12
6.498571e-12
6.4775744e-12
6.4261672e-12
6.3966559e-12
6.3766176e-12
6.33052e-12
6.2811525e-12
6.2233823e-12
6.1502606e-12
6.1075145e-12
6.0712077e-12
5.9858323e-12
5.9029264e-12
5.6899438e-12
5.6741199e-12
5.783077e-12
5.8186435e-12
5.8044377e-12
5.7981407e-12
5.7782419e-12
5.7676133e-12
5.7642063e-12
5.7524528e-12
5.7397982e-12
5.7267142e-12
5.716381e-12
5.6993934e-12
5.6844614e-12
5.6682719e-12
5.6617643e-12
5.6465401e-12
5.6308309e-12
5.6203969e-12
5.5979654e-12
5.5778191e-12
5.5553219e-12
5.5364182e-12
5.5165235e-12
5.4971467e-12
5.4797653e-12
5.4671023e-12
5.4521956e-12
5.4340758e-12
5.421017e-12
5.4071363e-12
5.3902586e-12
5.3724266e-12
5.358828e-12
5.3364964e-12
5.3155511e-12
5.2971942e-12
5.2828955e-12
5.2633548e-12
5.2461246e-12
5.2247998e-12
5.1981394e-12
5.1735054e-12
5.1521839e-12
5.1432727e-12
5.1169089e-12
5.1026117e-12
5.1004866e-12
5.0940753e-12
5.0847446e-12
5.0714078e-12
5.0514771e-12
5.0488538e-12
5.0369617e-12
5.0275229e-12
5.0114215e-12
5.0095691e-12
5.008762e-12
5.0050368e-12
4.9973928e-12
4.984956e-12
4.9697242e-12
4.9610026e-12
4.9532063e-12
4.9495697e-12
4.9436225e-12
4.937102e-12
4.9339671e-12
4.9184279e-12
4.9083335e-12
4.9018193e-12
4.8819155e-12
4.8598359e-12
4.8384322e-12
4.8228868e-12
4.8020631e-12
4.7831136e-12
4.7621526e-12
4.7358479e-12
4.7180471e-12
4.6929138e-12
4.6747889e-12
4.6461112e-12
4.6219327e-12
4.5945187e-12
4.5671242e-12
4.5496161e-12
4.5312863e-12
4.520094e-12
4.5055186e-12
4.4956936e-12
4.4903762e-12
4.4887758e-12
4.4847025e-12
4.480854e-12
4.4794799e-12
4.4761382e-12
4.4690694e-12
4.462795e-12
4.4587397e-12
4.455464e-12
4.4578812e-12
4.4701672e-12
4.4761999e-12
4.478797e-12
4.4796065e-12
4.4880984e-12
4.5007971e-12
4.5052238e-12
4.5128519e-12
4.5234783e-12
4.5369799e-12
4.5410104e-12
4.5413338e-12
4.5530358e-12
4.5701999e-12
4.5684526e-12
4.5720669e-12
4.5737294e-12
4.5876788e-12
4.5919219e-12
4.6061294e-12
4.6043034e-12
4.6121356e-12
4.6264197e-12
4.642466e-12
4.659434e-12
4.6642958e-12
4.6780202e-12
4.6888763e-12
4.7045026e-12
4.7246232e-12
4.746167e-12
4.7591957e-12
4.7759615e-12
4.7903534e-12
4.8121634e-12
4.8258456e-12
4.8380073e-12
4.8594933e-12
4.8942744e-12
4.9121813e-12
4.9322622e-12
4.9504852e-12
4.9799299e-12
5.0099499e-12
5.0299667e-12
5.0600613e-12
5.0897002e-12
5.1048785e-12
5.1185241e-12
5.1358829e-12
5.1409702e-12
5.1665347e-12
5.1956696e-12
5.2127572e-12
5.2386564e-12
5.2680951e-12
5.2963693e-12
5.3232709e-12
5.3632831e-12
5.3957493e-12
5.4228818e-12
5.4497156e-12
5.4868229e-12
5.5170127e-12
5.5502151e-12
5.5876847e-12
5.6177915e-12
5.6413011e-12
5.669112e-12
5.7036697e-12
5.7435608e-12
5.7786324e-12
5.8288199e-12
5.8628711e-12
5.8865523e-12
5.9238558e-12
5.9660721e-12
5.9934136e-12
6.0366589e-12
6.0738936e-12
6.1123283e-12
6.142648e-12
6.1709371e-12
6.2078671e-12
6.2450748e-12
6.275438e-12
6.3119975e-12
6.3579784e-12
6.3947337e-12
6.425198e-12
6.4586979e-12
6.490233e-12
6.5287471e-12
6.5679926e-12
6.6045196e-12
6.6488789e-12
6.6849814e-12
6.7160656e-12
6.7481166e-12
6.7775305e-12
6.7953728e-12
6.8305485e-12
6.8592875e-12
6.8874027e-12
6.93918e-12
6.9688333e-12
6.9833284e-12
6.9955741e-12
7.025048e-12
7.0463121e-12
7.0747589e-12
7.1084443e-12
7.1253468e-12
7.131694e-12
7.1473791e-12
7.1485256e-12
7.1427656e-12
7.1482632e-12
7.1631876e-12
7.1665622e-12
7.1720682e-12
7.1815919e-12
7.1795003e-12
7.1751558e-12
7.1832983e-12
7.1777987e-12
7.1759836e-12
7.1894324e-12
7.185327e-12
7.1783723e-12
7.1715257e-12
7.1434949e-12
7.1225102e-12
7.1043489e-12
7.0860412e-12
7.0767696e-12
7.0648153e-12
7.0399965e-12
7.0293266e-12
7.0095985e-12
6.9816921e-12
6.9561422e-12
6.9508842e-12
6.9501854e-12
6.932096e-12
6.9180137e-12
6.9163365e-12
6.9047899e-12
6.8946668e-12
6.8872343e-12
6.8738151e-12
6.8640726e-12
6.8627452e-12
6.8443418e-12
6.8329802e-12
6.8374421e-12
6.825858e-12
6.8148387e-12
6.7937543e-12
6.7868584e-12
6.790887e-12
6.7861409e-12
6.7721207e-12
6.7642259e-12
6.7569996e-12
6.771168e-12
6.7546613e-12
6.7369716e-12
6.7431164e-12
6.7407556e-12
6.7296085e-12
6.7145178e-12
6.7141553e-12
6.7007928e-12
6.6881917e-12
6.6679052e-12
6.6526502e-12
6.6409814e-12
6.6291849e-12
6.6212151e-12
6.5974933e-12
6.5744996e-12
6.5480443e-12
6.5199011e-12
6.4932173e-12
6.4744356e-12
6.4328386e-12
6.4047543e-12
6.3737942e-12
6.3340406e-12
6.2810463e-12
6.2222559e-12
6.1634087e-12
6.1251949e-12
6.0543097e-12
5.9879243e-12
5.9223089e-12
5.8261748e-12
5.8363863e-12
5.8318044e-12
5.8307237e-12
5.8126665e-12
5.7992015e-12
5.783903e-12
5.7733124e-12
5.7686222e-12
5.7505661e-12
5.7380351e-12
5.7229995e-12
5.7097804e-12
5.6919459e-12
5.6781684e-12
5.6776174e-12
5.6648861e-12
5.6492476e-12
5.632797e-12
5.6191521e-12
5.6024125e-12
5.579096e-12
5.5529465e-12
5.5324306e-12
5.514979e-12
5.4933952e-12
5.4764142e-12
5.4750257e-12
5.4593549e-12
5.4397087e-12
5.4181427e-12
5.4029656e-12
5.391483e-12
5.3710339e-12
5.3626963e-12
5.3412851e-12
5.3162103e-12
5.2996521e-12
5.2916185e-12
5.2691798e-12
5.2486779e-12
5.2272223e-12
5.203736e-12
5.1733823e-12
5.1484531e-12
5.144695e-12
5.1172291e-12
5.0992299e-12
5.0980403e-12
5.0934711e-12
5.0897062e-12
5.0739344e-12
5.0443647e-12
5.0428677e-12
5.0406233e-12
5.031137e-12
5.0159071e-12
5.010989e-12
5.0115495e-12
5.0026814e-12
4.9908985e-12
4.9770971e-12
4.9679401e-12
4.9597391e-12
4.9507361e-12
4.9514102e-12
4.9497108e-12
4.9406248e-12
4.9374622e-12
4.9244885e-12
4.9060645e-12
4.9031123e-12
4.8923532e-12
4.8651256e-12
4.8432984e-12
4.8305297e-12
4.8037367e-12
4.7840924e-12
4.7597638e-12
4.7405071e-12
4.7152448e-12
4.693646e-12
4.6750553e-12
4.6533673e-12
4.6186819e-12
4.5879172e-12
4.5645337e-12
4.5449744e-12
4.521863e-12
4.5172634e-12
4.5000943e-12
4.4896274e-12
4.4884491e-12
4.4895238e-12
4.48103e-12
4.4735469e-12
4.4775472e-12
4.4857919e-12
4.4761909e-12
4.4590768e-12
4.4480488e-12
4.4445452e-12
4.44781e-12
4.4641372e-12
4.4715174e-12
4.4746633e-12
4.4786298e-12
4.481285e-12
4.500496e-12
4.5158409e-12
4.5068079e-12
4.5212741e-12
4.5337827e-12
4.5409946e-12
4.5456139e-12
4.5550344e-12
4.5674263e-12
4.5672354e-12
4.5784461e-12
4.5754529e-12
4.5885719e-12
4.6002051e-12
4.6083478e-12
4.6028014e-12
4.6027344e-12
4.6234422e-12
4.6465815e-12
4.6601342e-12
4.6718457e-12
4.6749246e-12
4.6786593e-12
4.7042291e-12
4.7279029e-12
4.7469471e-12
4.7477105e-12
4.776511e-12
4.8019639e-12
4.8132449e-12
4.8163829e-12
4.8381608e-12
4.8625137e-12
4.8905533e-12
4.9053375e-12
4.9245993e-12
4.952526e-12
4.9880976e-12
5.009271e-12
5.0200442e-12
5.0693374e-12
5.0941357e-12
5.1072938e-12
5.1178516e-12
5.1283448e-12
5.1421655e-12
5.1633758e-12
5.200892e-12
5.2196711e-12
5.2427127e-12
5.2692117e-12
5.2921435e-12
5.3219006e-12
5.3563509e-12
5.3959871e-12
5.4296531e-12
5.4536717e-12
5.4800464e-12
5.5128035e-12
5.5487328e-12
5.5841211e-12
5.6126443e-12
5.6440799e-12
5.6588907e-12
5.705172e-12
5.7502628e-12
5.7814178e-12
5.8180746e-12
5.8609153e-12
5.8891501e-12
5.9358386e-12
5.9674562e-12
5.9919626e-12
6.0401936e-12
6.0810506e-12
6.1055279e-12
6.1468968e-12
6.1735031e-12
6.1996593e-12
6.2437528e-12
6.2831229e-12
6.3087406e-12
6.3570702e-12
6.4016848e-12
6.425657e-12
6.4507319e-12
6.4852593e-12
6.5287948e-12
6.5714845e-12
6.6180534e-12
6.6524132e-12
6.6852631e-12
6.7035847e-12
6.7400694e-12
6.7781255e-12
6.8011246e-12
6.8303969e-12
6.8587035e-12
6.8892974e-12
6.9378386e-12
6.9669006e-12
6.9816568e-12
7.0017636e-12
7.0221238e-12
7.0488957e-12
7.0804929e-12
7.1123233e-12
7.125104e-12
7.1353942e-12
7.1591602e-12
7.1538713e-12
7.1536565e-12
7.1508976e-12
7.1588006e-12
7.1584926e-12
7.1717291e-12
7.1788023e-12
7.1875992e-12
7.1779508e-12
7.1690025e-12
7.1804239e-12
7.1889021e-12
7.1936642e-12
7.1804832e-12
7.1781903e-12
7.1730822e-12
7.1495574e-12
7.1271589e-12
7.0978163e-12
7.0959723e-12
7.0879627e-12
7.073982e-12
7.0383756e-12
7.0333921e-12
6.9979898e-12
6.9745383e-12
6.9510133e-12
6.9576049e-12
6.945483e-12
6.9398272e-12
6.9176202e-12
6.9084994e-12
6.8978853e-12
6.8907539e-12
6.8832886e-12
6.8807956e-12
6.861661e-12
6.8626831e-12
6.8519794e-12
6.8349897e-12
6.8300919e-12
6.8258549e-12
6.8174174e-12
6.7947764e-12
6.7882248e-12
6.7852473e-12
6.7826806e-12
6.7613766e-12
6.7508501e-12
6.7611206e-12
6.7664468e-12
6.7631292e-12
6.7549256e-12
6.7436908e-12
6.7286866e-12
6.7112424e-12
6.7191254e-12
6.7292966e-12
6.7002151e-12
6.69168e-12
6.6907331e-12
6.6584544e-12
6.6247973e-12
6.6149789e-12
6.6215455e-12
6.5886985e-12
6.5780872e-12
6.556009e-12
6.5298906e-12
6.4911081e-12
6.4848159e-12
6.4405289e-12
6.401121e-12
6.3779383e-12
6.3425935e-12
6.2759222e-12
6.2218321e-12
6.1892173e-12
6.1418769e-12
6.058795e-12
5.9962079e-12
5.9379081e-12
5.883592e-12
5.8862046e-12
5.8581575e-12
5.8449448e-12
5.8259446e-12
5.8076186e-12
5.7917661e-12
5.7816355e-12
5.773693e-12
5.7498428e-12
5.7276162e-12
5.7264421e-12
5.70956e-12
5.6918057e-12
5.671343e-12
5.6811897e-12
5.6708601e-12
5.6487734e-12
5.6338034e-12
5.6231837e-12
5.5961393e-12
5.5713906e-12
5.5583255e-12
5.5312084e-12
5.5135392e-12
5.4989479e-12
5.4771316e-12
5.4688338e-12
5.4626123e-12
5.4369126e-12
5.4116267e-12
5.4076157e-12
5.4014498e-12
5.3782872e-12
5.3642907e-12
5.3473443e-12
5.3215521e-12
5.3007935e-12
5.2994668e-12
5.271293e-12
5.2486211e-12
5.2216171e-12
5.204512e-12
5.1775866e-12
5.1462379e-12
5.1369313e-12
5.1141672e-12
5.0945043e-12
5.0933719e-12
5.0976092e-12
5.0936079e-12
5.0670283e-12
5.0354884e-12
5.0434283e-12
5.0362349e-12
5.0272281e-12
5.0232007e-12
5.008453e-12
5.0001351e-12
4.9883168e-12
4.9745764e-12
4.9632464e-12
4.9599452e-12
4.9533628e-12
4.9541941e-12
4.9521392e-12
4.9467535e-12
4.937155e-12
4.9377589e-12
4.9288048e-12
4.9151368e-12
4.9023407e-12
4.9028062e-12
4.8708057e-12
4.8471459e-12
4.8287231e-12
4.81028e-12
4.7809443e-12
4.7640407e-12
4.7404129e-12
4.7200416e-12
4.6928043e-12
4.6846509e-12
4.653723e-12
4.6265436e-12
4.5892296e-12
4.5459733e-12
4.5324645e-12
4.5265896e-12
4.5187598e-12
4.4989711e-12
4.4936606e-12
4.4898174e-12
4.4839566e-12
4.4800004e-12
4.4619319e-12
4.4618029e-12
4.4668255e-12
4.4764645e-12
4.4665717e-12
4.4428412e-12
4.4350722e-12
4.4446916e-12
4.4520494e-12
4.4564804e-12
4.4548942e-12
4.46529e-12
4.4793055e-12
4.491747e-12
4.5125655e-12
4.509208e-12
4.5182109e-12
4.5269296e-12
4.5419229e-12
4.5589194e-12
4.5625127e-12
4.55435e-12
4.5673975e-12
4.5704492e-12
4.5809159e-12
4.5948012e-12
4.6070734e-12
4.6119493e-12
4.6073906e-12
4.6053102e-12
4.6277711e-12
4.6476145e-12
4.6555005e-12
4.6626673e-12
4.6764995e-12
4.6760624e-12
4.6918228e-12
4.7201566e-12
4.7324043e-12
4.7547044e-12
4.7887893e-12
4.7967888e-12
4.8060229e-12
4.8096879e-12
4.8335836e-12
4.876979e-12
4.8923849e-12
4.9013202e-12
4.9276579e-12
4.9538778e-12
4.9802239e-12
5.0028543e-12
5.0234808e-12
5.0607703e-12
5.090374e-12
5.1079225e-12
5.1232264e-12
5.1241674e-12
5.1435809e-12
5.1746939e-12
5.2078948e-12
5.2344406e-12
5.242099e-12
5.2692034e-12
5.3013231e-12
5.3181611e-12
5.3513161e-12
5.3923719e-12
5.4362254e-12
5.4600886e-12
5.4837104e-12
5.5136182e-12
5.5456921e-12
5.5847826e-12
5.6163143e-12
5.6229621e-12
5.6491469e-12
5.7019337e-12
5.749595e-12
5.790676e-12
5.8107127e-12
5.8434253e-12
5.903134e-12
5.9421794e-12
5.9750747e-12
5.9963876e-12
6.0351667e-12
6.0733119e-12
6.1094311e-12
6.1398544e-12
6.1696607e-12
6.1956768e-12
6.2367524e-12
6.2786048e-12
6.3189175e-12
6.3621253e-12
6.4002913e-12
6.4252476e-12
6.4627238e-12
6.4879991e-12
6.5212273e-12
6.5705502e-12
6.6172816e-12
6.6464332e-12
6.6841062e-12
6.7094822e-12
6.7385879e-12
6.7663929e-12
6.7949451e-12
6.8311727e-12
6.8611202e-12
6.8935911e-12
6.9223379e-12
6.9636833e-12
6.9954771e-12
7.0165965e-12
7.0408903e-12
7.0621962e-12
7.0904597e-12
7.1082338e-12
7.1136204e-12
7.1371678e-12
7.157307e-12
7.1556929e-12
7.1602936e-12
7.1468031e-12
7.1587871e-12
7.1692276e-12
7.1847673e-12
7.1728287e-12
7.1811712e-12
7.1731009e-12
7.1701903e-12
7.1884237e-12
7.1931017e-12
7.1902681e-12
7.1964039e-12
7.1914763e-12
7.1688349e-12
7.1500211e-12
7.1275646e-12
7.0976588e-12
7.0968358e-12
7.0815211e-12
7.0694475e-12
7.0557556e-12
7.0308215e-12
6.9869975e-12
6.9681315e-12
6.9624745e-12
6.9582648e-12
6.9295593e-12
6.9424984e-12
6.921567e-12
6.8940667e-12
6.8979069e-12
6.8803802e-12
6.879005e-12
6.8711424e-12
6.8686818e-12
6.8661721e-12
6.848351e-12
6.8433159e-12
6.830718e-12
6.8140645e-12
6.8123629e-12
6.8050108e-12
6.8073852e-12
6.7984293e-12
6.7790297e-12
6.7602857e-12
6.7669908e-12
6.7726094e-12
6.7523198e-12
6.7501909e-12
6.7528085e-12
6.7456831e-12
6.7389648e-12
6.7233209e-12
6.7258372e-12
6.7402693e-12
6.7161564e-12
6.6972039e-12
6.6888882e-12
6.654749e-12
6.6334307e-12
6.6083973e-12
6.5988611e-12
6.5964637e-12
6.588564e-12
6.5591909e-12
6.530679e-12
6.5127333e-12
6.4940283e-12
6.4445774e-12
6.4018989e-12
6.3858922e-12
6.3402153e-12
6.2796002e-12
6.2314987e-12
6.2135898e-12
6.1466956e-12
6.0803179e-12
6.0208283e-12
5.968064e-12
5.9342198e-12
5.9340447e-12
5.9031865e-12
5.867341e-12
5.8485007e-12
5.8259658e-12
5.7991237e-12
5.7840883e-12
5.7687551e-12
5.7537966e-12
5.7297545e-12
5.7288441e-12
5.7334168e-12
5.7013217e-12
5.662645e-12
5.6800472e-12
5.677883e-12
5.6573902e-12
5.6326662e-12
5.6201301e-12
5.5898525e-12
5.5738385e-12
5.5536984e-12
5.5224223e-12
5.5100945e-12
5.5131867e-12
5.4841596e-12
5.4591397e-12
5.4469969e-12
5.432607e-12
5.4198014e-12
5.420567e-12
5.3943758e-12
5.3775575e-12
5.3806786e-12
5.3481569e-12
5.3446205e-12
5.3239055e-12
5.3156497e-12
5.2489154e-12
5.2358636e-12
5.2210748e-12
5.2094839e-12
5.1788985e-12
5.1497608e-12
5.1446412e-12
5.0955826e-12
5.0852325e-12
5.0853327e-12
5.0924524e-12
5.1066482e-12
5.0863393e-12
5.054457e-12
5.0365357e-12
5.0269393e-12
5.0152109e-12
5.0233254e-12
4.9989004e-12
4.983012e-12
4.9709254e-12
4.9685827e-12
4.9551273e-12
4.9419979e-12
4.9436029e-12
4.9679361e-12
4.9492152e-12
4.9177996e-12
4.9260915e-12
4.9507046e-12
4.9268364e-12
4.9140576e-12
4.9201531e-12
4.9028523e-12
4.9059904e-12
4.8558288e-12
4.8165666e-12
4.8207546e-12
4.7740889e-12
4.7716273e-12
4.7424495e-12
4.7265823e-12
4.6979081e-12
4.6816924e-12
4.658212e-12
4.6194968e-12
4.5953707e-12
4.5586867e-12
4.5248687e-12
4.5138405e-12
4.5093254e-12
4.5024583e-12
4.4899545e-12
4.4902605e-12
4.4842427e-12
4.4749636e-12
4.4371586e-12
4.4590471e-12
4.4675063e-12
4.4713947e-12
4.4588558e-12
4.4314578e-12
4.4382648e-12
4.4441349e-12
4.4413493e-12
4.4511319e-12
4.4555583e-12
4.4552476e-12
4.4573637e-12
4.4961206e-12
4.5024249e-12
4.5179455e-12
4.5227627e-12
4.5402074e-12
4.5513915e-12
4.551224e-12
4.5597168e-12
4.5457977e-12
4.5776985e-12
4.5871734e-12
4.582377e-12
4.6043321e-12
4.6172512e-12
4.6067615e-12
4.6051204e-12
4.6124413e-12
4.6128284e-12
4.641304e-12
4.650065e-12
4.6432417e-12
4.6701619e-12
4.6568025e-12
4.6770743e-12
4.7083735e-12
4.7366053e-12
4.7609545e-12
4.777586e-12
4.7913397e-12
4.8062568e-12
4.8115865e-12
4.8254452e-12
4.8756206e-12
4.9135897e-12
4.8883521e-12
4.9364823e-12
4.951719e-12
4.980984e-12
5.0137516e-12
5.039649e-12
5.05188e-12
5.0728657e-12
5.1131047e-12
5.1238331e-12
5.1437465e-12
5.1470739e-12
5.1701835e-12
5.2104161e-12
5.2371678e-12
5.2506233e-12
5.2729772e-12
5.3155032e-12
5.3359246e-12
5.3622819e-12
5.3874916e-12
5.4380211e-12
5.4523185e-12
5.4757251e-12
5.52241e-12
5.5586408e-12
5.560003e-12
5.613957e-12
5.6189883e-12
5.6391032e-12
5.6851326e-12
5.7359019e-12
5.7781955e-12
5.8152561e-12
5.8478591e-12
5.8983259e-12
5.9443607e-12
5.9723765e-12
6.0060164e-12
6.0391516e-12
6.0776816e-12
6.1075122e-12
6.1274363e-12
6.1557097e-12
6.1927278e-12
6.2390508e-12
6.2826853e-12
6.332731e-12
6.3662418e-12
6.3842877e-12
6.4332524e-12
6.4705408e-12
6.4808365e-12
6.5130213e-12
6.5802591e-12
6.6357665e-12
6.6481699e-12
6.6580988e-12
6.7007447e-12
6.7293024e-12
6.7583997e-12
6.7910117e-12
6.843016e-12
6.8824345e-12
6.8912076e-12
6.9192666e-12
6.9479321e-12
7.0170045e-12
7.0375915e-12
7.0463894e-12
7.0716227e-12
7.098301e-12
7.1155796e-12
7.1253822e-12
7.1334529e-12
7.1422382e-12
7.1603015e-12
7.1674213e-12
7.1553503e-12
7.1678223e-12
7.1614447e-12
7.1817135e-12
7.1724032e-12
7.1712697e-12
7.162521e-12
7.1800468e-12
7.2006453e-12
7.1957541e-12
7.193957e-12
7.205952e-12
7.2067225e-12
7.1789451e-12
7.1484797e-12
7.1326629e-12
7.0962908e-12
7.0849644e-12
7.068545e-12
7.0657958e-12
7.0643354e-12
7.047599e-12
6.9840276e-12
6.9442657e-12
6.9544627e-12
6.9479281e-12
6.9219534e-12
6.9274365e-12
6.9014461e-12
6.8954442e-12
6.8877662e-12
6.8692725e-12
6.8758151e-12
6.8870556e-12
6.8742676e-12
6.8450894e-12
6.8553708e-12
6.8427099e-12
6.822458e-12
6.8252493e-12
6.8134086e-12
6.8217533e-12
6.8215855e-12
6.788244e-12
6.7890109e-12
6.774395e-12
6.7783325e-12
6.7770517e-12
6.7443378e-12
6.7363927e-12
6.7448675e-12
6.7410717e-12
6.7241491e-12
6.7468032e-12
6.7537011e-12
6.7656636e-12
6.743228e-12
6.6998838e-12
6.6554033e-12
6.6586098e-12
6.6552467e-12
6.607913e-12
6.6064492e-12
6.610686e-12
6.5826157e-12
6.5674951e-12
6.5594887e-12
6.5344655e-12
6.4875226e-12
6.4597913e-12
6.4178751e-12
6.381597e-12
6.3445603e-12
6.2926528e-12
6.256067e-12
6.2401209e-12
6.1457256e-12
6.091855e-12
6.0607978e-12
6.0070105e-12
5.9638225e-12
5.9832315e-12
5.9420257e-12
5.8893871e-12
5.8451647e-12
5.8291459e-12
5.824035e-12
5.8058454e-12
5.7722768e-12
5.7679894e-12
5.752491e-12
5.7463067e-12
5.7412305e-12
5.6989938e-12
5.6744113e-12
5.6740274e-12
5.6663476e-12
5.6525693e-12
5.6229816e-12
5.6019481e-12
5.563446e-12
5.5647702e-12
5.5555775e-12
5.5016115e-12
5.492071e-12
5.5037474e-12
5.4900523e-12
5.4703105e-12
5.4515523e-12
5.424979e-12
5.4215717e-12
5.4310807e-12
5.3898636e-12
5.3739356e-12
5.3904762e-12
5.3707157e-12
5.3431934e-12
5.3261506e-12
5.3117557e-12
5.2780854e-12
5.2483058e-12
5.2163804e-12
5.1940779e-12
5.187846e-12
5.1461016e-12
5.1337393e-12
5.1139458e-12
5.0943635e-12
5.0769792e-12
5.0953338e-12
5.1138157e-12
5.0729971e-12
5.0571562e-12
5.0254192e-12
5.0335297e-12
5.0139898e-12
5.0271961e-12
5.0063994e-12
4.9721948e-12
4.9510827e-12
4.9549443e-12
4.9538216e-12
4.9462706e-12
4.9515402e-12
4.9523944e-12
4.9406062e-12
4.9147697e-12
4.9260014e-12
4.9401681e-12
4.919209e-12
4.902301e-12
4.9156967e-12
4.8966961e-12
4.8917875e-12
4.8862272e-12
4.8513827e-12
4.8391396e-12
4.773628e-12
4.7608768e-12
4.7511041e-12
4.7391038e-12
4.6966656e-12
4.687577e-12
4.6654418e-12
4.6225739e-12
4.6097914e-12
4.5606862e-12
4.5381977e-12
4.5066838e-12
4.5085463e-12
4.4821687e-12
4.4992626e-12
4.4771981e-12
4.4862155e-12
4.4590181e-12
4.44948e-12
4.434415e-12
4.4601087e-12
4.4648457e-12
4.4440582e-12
4.4339601e-12
4.4232549e-12
4.430602e-12
4.4392873e-12
4.4529338e-12
4.4593723e-12
4.4441891e-12
4.450896e-12
4.4828407e-12
4.4862504e-12
4.5224632e-12
4.5334784e-12
4.5475518e-12
4.5714847e-12
4.5381925e-12
4.5454092e-12
4.569265e-12
4.5885288e-12
4.5866141e-12
4.5828178e-12
4.6249558e-12
4.6384536e-12
4.5972164e-12
4.5915237e-12
4.5864035e-12
4.6128685e-12
4.6233885e-12
4.6451309e-12
4.6305412e-12
4.6603332e-12
4.6552672e-12
4.6784073e-12
4.6994685e-12
4.7196017e-12
4.770764e-12
4.7943237e-12
4.8031856e-12
4.8116962e-12
4.82114e-12
4.8295299e-12
4.858746e-12
4.8785066e-12
4.9336155e-12
4.9699411e-12
4.9742708e-12
4.9828276e-12
5.0228069e-12
5.0543396e-12
5.0337984e-12
5.0601707e-12
5.1055248e-12
5.1250308e-12
5.145333e-12
5.145454e-12
5.1475153e-12
5.1916737e-12
5.2367187e-12
5.2632889e-12
5.2906488e-12
5.3182925e-12
5.3555198e-12
5.3642039e-12
5.3904309e-12
5.4196947e-12
5.4419588e-12
5.4810174e-12
5.5106923e-12
5.5564843e-12
5.5491541e-12
5.5905608e-12
5.6139808e-12
5.6380832e-12
5.6963847e-12
5.719008e-12
5.7684844e-12
5.8157059e-12
5.8531554e-12
5.8901266e-12
5.9360824e-12
5.9869962e-12
6.0367329e-12
6.0723829e-12
6.0868242e-12
6.0928314e-12
6.1247667e-12
6.1557645e-12
6.2061397e-12
6.2477388e-12
6.282784e-12
6.3422776e-12
6.3600992e-12
6.3834269e-12
6.4400915e-12
6.4670964e-12
6.485044e-12
6.5099475e-12
6.5870067e-12
6.6349581e-12
6.6299072e-12
6.6533889e-12
6.7109067e-12
6.7360063e-12
6.7408223e-12
6.77989e-12
6.8288462e-12
6.8698772e-12
6.9051587e-12
6.9368261e-12
6.973331e-12
7.0383958e-12
7.0592349e-12
7.073703e-12
7.08183e-12
7.0938818e-12
7.1209806e-12
7.1122477e-12
7.1322109e-12
7.1331754e-12
7.1438871e-12
7.1841335e-12
7.1480796e-12
7.1425875e-12
7.159705e-12
7.1958617e-12
7.1854194e-12
7.1748852e-12
7.1762032e-12
7.183863e-12
7.1975112e-12
7.2037465e-12
7.2034484e-12
7.2234986e-12
7.199217e-12
7.1651922e-12
7.1654218e-12
7.1237999e-12
7.0969391e-12
7.0636219e-12
7.0849838e-12
7.0812678e-12
7.0683079e-12
7.0359097e-12
6.9883676e-12
6.9488281e-12
6.9435777e-12
6.9405928e-12
6.9330194e-12
6.9125502e-12
6.892558e-12
6.9053517e-12
6.8922833e-12
6.8758397e-12
6.8709473e-12
6.8839406e-12
6.8846059e-12
6.8481675e-12
6.8432123e-12
6.8380427e-12
6.8132975e-12
6.8322789e-12
6.8222748e-12
6.8264311e-12
6.8191154e-12
6.7826763e-12
6.7919856e-12
6.7837529e-12
6.7656085e-12
6.7889635e-12
6.765354e-12
6.7401938e-12
6.7463243e-12
6.7248377e-12
6.7117442e-12
6.7569585e-12
6.7625139e-12
6.7612706e-12
6.7687916e-12
6.7055152e-12
6.6500043e-12
6.6678594e-12
6.6545633e-12
6.637085e-12
6.644072e-12
6.6396748e-12
6.6093654e-12
6.5580252e-12
6.5650436e-12
6.5493022e-12
6.4994433e-12
6.480005e-12
6.4424346e-12
6.3857831e-12
6.3265639e-12
6.3097861e-12
6.2702973e-12
6.258317e-12
6.1726242e-12
6.1063558e-12
6.0826898e-12
6.0461318e-12
6.0158661e-12
6.0053606e-12
5.9772529e-12
5.9331345e-12
5.8662359e-12
5.8332747e-12
5.8239341e-12
5.8247974e-12
5.7966323e-12
5.7896077e-12
5.7690273e-12
5.7467017e-12
5.7570434e-12
5.7222072e-12
5.6890479e-12
5.6725456e-12
5.6596769e-12
5.6312237e-12
5.6151042e-12
5.5802703e-12
5.5474062e-12
5.5392094e-12
5.5567992e-12
5.5090572e-12
5.4897558e-12
5.4994324e-12
5.492095e-12
5.4586271e-12
5.4467566e-12
5.4203919e-12
5.4369068e-12
5.4409487e-12
5.4024037e-12
5.4038967e-12
5.4246972e-12
5.3830455e-12
5.3398135e-12
5.3155996e-12
5.277357e-12
5.2674622e-12
5.2297764e-12
5.216236e-12
5.228868e-12
5.1894433e-12
5.1607092e-12
5.1326794e-12
5.1092501e-12
5.0906631e-12
5.0763609e-12
5.1172238e-12
5.1113139e-12
5.068352e-12
5.0579016e-12
5.0187042e-12
5.027742e-12
5.0226758e-12
5.039769e-12
4.9973418e-12
4.9659739e-12
4.939564e-12
4.9543518e-12
4.9518413e-12
4.9630775e-12
4.9425862e-12
4.9293303e-12
4.933076e-12
4.9234067e-12
4.9186742e-12
4.9388676e-12
4.9229691e-12
4.9023503e-12
4.9114441e-12
4.909247e-12
4.9110681e-12
4.9061623e-12
4.8526384e-12
4.8196849e-12
4.7888679e-12
4.7622285e-12
4.7819139e-12
4.7490209e-12
4.6891908e-12
4.6968579e-12
4.6689565e-12
4.6184365e-12
4.5992792e-12
4.573823e-12
4.5580444e-12
4.5154455e-12
4.5009202e-12
4.4863216e-12
4.4725175e-12
4.4626232e-12
4.4618019e-12
4.4565392e-12
4.4373841e-12
4.4337322e-12
4.4576875e-12
4.4587942e-12
4.4619656e-12
4.4390819e-12
4.423638e-12
4.4101886e-12
4.4386801e-12
4.4545548e-12
4.4717008e-12
4.4496561e-12
4.4518051e-12
4.4535806e-12
4.4659931e-12
4.5056451e-12
4.5497793e-12
4.5481206e-12
4.5619617e-12
4.554958e-12
4.5600172e-12
4.5935226e-12
4.604924e-12
4.5872022e-12
4.5812618e-12
4.6393686e-12
4.6233657e-12
4.5932042e-12
4.594234e-12
4.5772593e-12
4.6209664e-12
4.623846e-12
4.6148281e-12
4.637058e-12
4.6747549e-12
4.6660985e-12
4.6610523e-12
4.7169143e-12
4.7292972e-12
4.7680564e-12
4.8098466e-12
4.8042982e-12
4.8101065e-12
4.8228246e-12
4.8389164e-12
4.8407795e-12
4.8752977e-12
4.9403482e-12
4.9583904e-12
4.9642915e-12
5.0143873e-12
5.0356836e-12
5.0439565e-12
5.0132306e-12
5.0691934e-12
5.0920957e-12
5.1007678e-12
5.1507154e-12
5.1318559e-12
5.1387529e-12
5.1643522e-12
5.2155862e-12
5.2792039e-12
5.2961456e-12
5.3221051e-12
5.360759e-12
5.3503808e-12
5.3813101e-12
5.4100471e-12
5.4770355e-12
5.4771136e-12
5.4768247e-12
5.5163385e-12
5.5321857e-12
5.5794654e-12
5.6100282e-12
5.6298118e-12
5.7015075e-12
5.7145328e-12
5.7759191e-12
5.7992942e-12
5.8432103e-12
5.8921475e-12
5.9359672e-12
5.9885887e-12
6.0477739e-12
6.0671338e-12
6.0764486e-12
6.113147e-12
6.1270606e-12
6.1482467e-12
6.212598e-12
6.2499857e-12
6.3112865e-12
6.3446864e-12
6.370331e-12
6.3965843e-12
6.435172e-12
6.4532297e-12
6.4841953e-12
6.5237312e-12
6.58253e-12
6.614108e-12
6.6384701e-12
6.6774205e-12
6.7240015e-12
6.7305349e-12
6.7453444e-12
6.7692677e-12
6.8197748e-12
6.8830962e-12
6.9007223e-12
6.9429753e-12
6.9853197e-12
7.0508419e-12
7.0782771e-12
7.094653e-12
7.1129881e-12
7.1007218e-12
7.1148564e-12
7.0952493e-12
7.1102895e-12
7.1505827e-12
7.153891e-12
7.1575119e-12
7.1452207e-12
7.1443887e-12
7.1398503e-12
7.1897989e-12
7.1895248e-12
7.1736332e-12
7.184506e-12
7.1938106e-12
7.1824344e-12
7.217129e-12
7.200834e-12
7.226474e-12
7.2217728e-12
7.17267e-12
7.1416974e-12
7.1188957e-12
7.1019681e-12
7.0747372e-12
7.0659359e-12
7.0444166e-12
7.0744524e-12
7.0579951e-12
7.0002468e-12
6.9497443e-12
6.9476135e-12
6.9403998e-12
6.9343838e-12
6.909439e-12
6.9118227e-12
6.8975847e-12
6.8758231e-12
6.8871408e-12
6.8805873e-12
6.8898156e-12
6.8811429e-12
6.8362164e-12
6.8322601e-12
6.832739e-12
6.8209141e-12
6.8385132e-12
6.7988047e-12
6.8379395e-12
6.8438142e-12
6.7834657e-12
6.7842009e-12
6.8020211e-12
6.7862414e-12
6.8022731e-12
6.7802808e-12
6.7481146e-12
6.7462771e-12
6.7423789e-12
6.7273934e-12
6.7782181e-12
6.7999131e-12
6.7691501e-12
6.7611909e-12
6.7285264e-12
6.6901772e-12
6.6544745e-12
6.6602498e-12
6.6709432e-12
6.6786343e-12
6.6648596e-12
6.6136787e-12
6.5792163e-12
6.563526e-12
6.5624054e-12
6.5171367e-12
6.4891818e-12
6.4513137e-12
6.3952035e-12
6.3560233e-12
6.3237937e-12
6.3141115e-12
6.2773063e-12
6.184357e-12