/*--------------------------------*- C++ -*----------------------------------*\
| =========                 |                                                 |
| \\      /  F ield         | OpenFOAM: The Open Source CFD Toolbox           |
|  \\    /   O peration     | Version:  2406                                  |
|   \\  /    A nd           | Website:  www.openfoam.com                      |
|    \\/     M anipulation  |                                                 |
\*---------------------------------------------------------------------------*/
FoamFile
{
    version     2.0;
    format      ascii;
    arch        "LSB;label=32;scalar=64";
    class       surfaceScalarField;
    location    "14";
    object      phi;
}
// * * * * * * * * * * * * * * * * * * * * * * * * * * * * * * * * * * * * * //

dimensions      [0 3 -1 0 0 0 0];

oriented        oriented;

internalField   nonuniform List<scalar> 
59600
(
0.00024979469
-4.9594862e-17
0.00024979469
-2.0044092e-17
0.00024979469
-6.3405468e-18
0.00024979469
-2.8569773e-18
0.00024979469
-1.5680642e-18
0.00024979469
-7.842966e-19
0.00024979469
-4.5335463e-19
0.00024979469
-3.3744558e-19
0.00024979469
-2.088921e-19
0.00024979469
-1.9017576e-19
0.00024979469
-1.2155372e-19
0.00024979469
-9.881308e-20
0.00024979469
-1.1945279e-19
0.00024979469
-1.2573028e-20
0.00024979469
-1.405326e-20
0.00024979469
-2.031808e-19
0.00024979469
-1.9151951e-19
0.00024979469
-3.3073671e-19
0.00024979469
-2.6374696e-19
0.00024979469
-5.8552011e-20
0.00024979469
-1.5547779e-19
0.00024979469
-1.4659913e-20
0.00024979469
1.2490039e-19
0.00024979469
8.9601884e-20
0.00024979469
-8.0574526e-21
0.00024979469
1.1124346e-19
0.00024979469
8.5717825e-20
0.00024979469
1.9222857e-20
0.00024979469
-1.3708e-19
0.00024979469
5.0468561e-21
0.00024979469
1.0441076e-19
0.00024979469
-4.7140948e-20
0.00024979469
8.6326375e-20
0.00024979469
8.9256254e-20
0.00024979469
-8.2280704e-20
0.00024979469
2.4105719e-20
0.00024979469
3.6585001e-20
0.00024979469
3.4974988e-20
0.00024979469
3.5901558e-20
0.00024979469
-1.049603e-19
0.00024979469
1.7383022e-19
0.00024979469
-8.8092553e-20
0.00024979469
4.867371e-20
0.00024979469
1.5857392e-19
0.00024979469
-2.1340344e-19
0.00024979469
7.4544238e-20
0.00024979469
1.6481018e-19
0.00024979469
-1.3369806e-19
0.00024979469
-4.9978969e-21
0.00024979469
1.4137231e-19
0.00024979469
-6.6500106e-20
0.00024979469
-1.0457303e-19
0.00024979469
-5.0384407e-19
0.00024979469
-2.6580708e-19
0.00024979469
1.409466e-19
0.00024979469
-7.4767139e-20
0.00024979469
1.6454435e-19
0.00024979469
1.4651383e-21
0.00024979469
-1.6495278e-19
0.00024979469
1.3831106e-19
0.00024979469
1.3127161e-19
0.00024979469
2.2250785e-21
0.00024979469
1.1205367e-19
0.00024979469
3.7108017e-19
0.00024979469
-4.9256034e-20
0.00024979469
8.993184e-20
0.00024979469
-9.1184667e-20
0.00024979469
-6.59234e-20
0.00024979469
2.1211925e-19
0.00024979469
-1.6897699e-19
0.00024979469
-2.1143813e-19
0.00024979469
6.9355273e-20
0.00024979469
3.9482017e-19
0.00024979469
-5.1537282e-20
0.00024979469
-2.2204037e-19
0.00024979469
5.483201e-19
0.00024979469
2.291889e-19
0.00024979469
-2.7675315e-19
0.00024979469
1.897885e-19
0.00024979469
3.3939633e-19
0.00024979469
1.5384835e-19
0.00024979469
6.4385333e-20
0.00024979469
2.2641319e-19
0.00024979469
5.8196514e-20
0.00024979469
-2.3784526e-19
0.00024979469
4.1465287e-19
0.00024979469
2.5896444e-19
0.00024979469
-9.975935e-20
0.00024979469
1.5548451e-19
0.00024979469
4.4627212e-20
0.00024979469
1.0798038e-19
0.00024979469
3.8919194e-19
0.00024979469
1.2713145e-19
0.00024979469
-5.0690452e-20
0.00024979469
-1.7565757e-20
0.00024979469
-5.1950823e-19
0.00024979469
-4.0329272e-20
0.00024979469
3.3029831e-19
0.00024979469
-2.1576848e-19
0.00024979469
-2.4018385e-19
0.00024979469
5.6486384e-20
0.00024979469
1.5647131e-19
0.00024979469
-2.8818649e-19
0.00024979469
-1.9438381e-19
0.00024979469
6.5555679e-20
0.00024979469
-5.2339504e-19
0.00024979469
-3.419334e-19
0.00024979469
4.7740762e-20
0.00024979469
8.4406631e-20
0.00024979469
4.2471573e-19
0.00024979469
-1.3568323e-19
0.00024979469
-5.4541346e-19
0.00024979469
-2.0376268e-20
0.00024979469
5.767217e-19
0.00024979469
2.2171479e-19
0.00024979469
-4.8073587e-19
0.00024979469
-4.6462271e-19
0.00024979469
2.5312365e-19
0.00024979469
4.5869881e-19
0.00024979469
-1.1117111e-19
0.00024979469
-6.862543e-20
0.00024979469
8.2610931e-20
0.00024979469
5.2517903e-19
0.00024979469
9.6251215e-20
0.00024979469
-5.2758858e-19
0.00024979469
2.7442363e-19
0.00024979469
1.5965444e-19
0.00024979469
-2.3560813e-19
0.00024979469
6.749616e-20
0.00024979469
-1.413611e-20
0.00024979469
-2.3766372e-19
0.00024979469
-5.1748252e-20
0.00024979469
5.188705e-19
0.00024979469
-3.5352839e-19
0.00024979469
-4.2814911e-19
0.00024979469
3.4501375e-19
0.00024979469
1.8490994e-19
0.00024979469
-2.3171243e-19
0.00024979469
2.7067246e-19
0.00024979469
2.9058229e-19
0.00024979469
-6.3692319e-19
0.00024979469
-3.2987109e-19
0.00024979469
2.1634764e-19
0.00024979469
5.3457728e-19
0.00024979469
-1.5310817e-19
0.00024979469
-1.8583324e-19
0.00024979469
5.0260528e-19
0.00024979469
-2.8851385e-19
0.00024979469
-6.713452e-19
0.00024979469
3.8682642e-19
0.00024979469
-3.7061671e-19
0.00024979469
-2.4759914e-19
0.00024979469
9.277705e-19
0.00024979469
-4.4712591e-19
0.00024979469
-3.0602969e-19
0.00024979469
3.8220869e-19
0.00024979469
-5.0687328e-19
0.00024979469
-1.9306661e-19
0.00024979469
1.6237111e-19
0.00024979469
3.1024302e-19
0.00024979469
-1.3873326e-19
0.00024979469
-3.1238582e-19
0.00024979469
-1.0787292e-19
0.00024979469
1.1452819e-19
0.00024979469
5.1917111e-20
0.00024979469
1.9639436e-19
0.00024979469
4.1359249e-19
0.00024979469
-7.8320245e-19
0.00024979469
5.1166852e-19
0.00024979469
5.9834477e-19
0.00024979469
-8.7477257e-19
0.00024979469
4.3385009e-19
0.00024979469
4.6952009e-19
0.00024979469
-8.6045051e-19
0.00024979469
-2.4159405e-19
0.00024979469
8.889686e-21
0.00024979469
2.6192201e-19
0.00024979469
3.5159492e-20
0.00024979469
-2.8379002e-19
0.00024979469
3.1277139e-19
0.00024979469
-1.5539197e-19
0.00024979469
-3.4803042e-19
0.00024979469
-2.0522065e-19
0.00024979469
-2.1990584e-19
0.00024979469
8.3318244e-19
0.00024979469
1.1741637e-19
0.00024979469
-5.757246e-19
0.00024979469
3.5623099e-19
0.00024979469
8.0327069e-20
0.00024979469
-9.5082607e-20
0.00024979469
-3.5387884e-19
0.00024979469
-2.8834584e-19
0.00024979469
-2.7065864e-19
0.00024979469
7.1350573e-19
0.00024979469
6.5435352e-19
0.00024979469
-1.0938867e-20
0.00024979469
3.7401238e-19
0.00024979469
1.8879204e-19
0.00024979469
-9.1479461e-19
0.00024979469
-5.6935308e-19
0.00024979469
3.286969e-19
0.00024979469
-4.5595867e-19
0.00024979469
7.1340351e-19
0.00024979469
5.598852e-19
0.00024979469
3.1340316e-19
0.00024979469
1.8066588e-19
0.00024979469
-5.9802054e-19
0.00024979469
-2.7275762e-19
0.00024979469
1.5262415e-19
0.00024979469
-1.0745285e-19
0.00024979469
3.0146261e-19
0.00024979469
-1.8254064e-20
0.00024979469
-5.6974121e-19
0.00024979469
6.7083001e-19
0.00024979469
-2.8010241e-19
0.00024979469
-3.0030584e-19
0.00024979469
-1.6768839e-19
0.00024979469
-7.6013087e-20
0.00024979469
5.1591175e-19
0.00024979469
7.5760668e-19
0.00024979469
-1.5132056e-19
0.00024979469
-7.9635229e-19
0.00024979469
-3.3843399e-19
0.00024979469
-5.2544423e-19
0.00024979469
1.078637e-19
0.00024979469
1.5575776e-19
0.00024979469
2.6915544e-19
0.00024979469
6.8179132e-19
0.00024979469
5.9200928e-19
0.00024979469
8.4955291e-20
0.00024979469
-4.5704569e-19
0.00024979469
-8.6529984e-19
0.00024979469
2.041873e-19
0.00024979469
2.1567783e-19
0.00024979469
-4.5022101e-19
0.00024979469
6.7056074e-19
0.00024979469
4.3393988e-19
0.00024979469
5.1836243e-19
0.00024979469
-5.3400341e-19
0.00024979469
8.7677386e-20
0.00024979469
-1.576668e-19
0.00024979469
-6.7904289e-19
0.00024979469
4.9816503e-19
0.00024979469
9.0524042e-19
0.00024979469
-3.3877739e-19
0.00024979469
-2.7036564e-19
0.00024979469
5.2198125e-19
0.00024979469
-4.3297114e-19
0.00024979469
-6.1916909e-20
0.00024979469
-3.9945686e-19
0.00024979469
8.5444882e-20
0.00024979469
2.5312715e-19
0.00024979469
1.0070734e-18
0.00024979469
-3.9208077e-19
0.00024979469
-7.0428972e-19
0.00024979469
6.5410471e-19
0.00024979469
-2.3471335e-19
0.00024979469
-6.5418337e-19
0.00024979469
3.9174151e-19
0.00024979469
-1.2534799e-19
0.00024979469
3.8317461e-19
0.00024979469
9.6629339e-19
0.00024979469
-1.0241305e-18
0.00024979469
2.8079902e-19
0.00024979469
-5.0522894e-19
0.00024979469
-3.7191404e-19
0.00024979469
9.6597189e-19
0.00024979469
-1.2762352e-18
0.00024979469
-4.6899667e-20
0.00024979469
2.3253085e-18
0.00024979469
-1.0059709e-18
0.00024979469
-1.1422106e-18
0.00024979469
1.5599419e-19
0.00024979469
-6.198618e-19
0.00024979469
9.7114012e-19
0.00024979469
-1.2090762e-18
0.00024979469
-1.2391484e-19
0.00024979469
1.4566296e-18
0.00024979469
6.7997777e-19
0.00024979469
-7.4178259e-19
0.00024979469
-7.0163457e-19
0.00024979469
-2.9999001e-19
0.00024979469
-1.085751e-19
0.00024979469
6.1286418e-20
0.00024979469
-9.291324e-19
0.00024979469
9.9840797e-19
0.00024979469
-4.1824162e-19
0.00024979469
-1.0072516e-18
0.00024979469
6.363084e-19
0.00024979469
4.3637052e-19
0.00024979469
-1.0104222e-18
0.00024979469
-3.0942114e-19
0.00024979469
-3.6963162e-19
0.00024979469
-7.2219585e-19
0.00024979469
1.5489114e-18
0.00024979469
-8.7127271e-20
0.00024979469
-3.2319225e-18
0.00024979469
-2.5731704e-18
0.00024979469
-6.1337536e-18
-2.0638818e-17
0.00073938428
-2.6691141e-17
0.00073938428
-1.8851315e-17
0.00073938428
-9.6901253e-18
0.00073938428
-5.6277773e-18
0.00073938428
-3.2754895e-18
0.00073938428
-1.9957516e-18
0.00073938428
-1.2708954e-18
0.00073938428
-9.8186542e-19
0.00073938428
-6.4492238e-19
0.00073938428
-7.5628399e-19
0.00073938428
-5.8465941e-19
0.00073938428
-2.9030512e-19
0.00073938428
-2.7929394e-19
0.00073938428
-2.3646502e-19
0.00073938428
-6.0966986e-19
0.00073938428
-5.5433645e-19
0.00073938428
-9.7311039e-19
0.00073938428
-1.0126598e-18
0.00073938428
-8.0888781e-19
0.00073938428
-4.9882281e-19
0.00073938428
-3.4667506e-19
0.00073938428
-2.4461426e-19
0.00073938428
2.107369e-19
0.00073938428
1.1993378e-19
0.00073938428
2.1998886e-19
0.00073938428
2.5043783e-19
0.00073938428
5.4242895e-20
0.00073938428
-6.4013608e-20
0.00073938428
-2.2611867e-19
0.00073938428
-1.1195123e-19
0.00073938428
6.3242032e-20
0.00073938428
2.14266e-19
0.00073938428
1.5045244e-19
0.00073938428
1.6902104e-19
0.00073938428
1.7014429e-20
0.00073938428
1.4268058e-19
0.00073938428
-1.6845818e-19
0.00073938428
-1.9062791e-19
0.00073938428
3.9361288e-20
0.00073938428
-1.6703989e-19
0.00073938428
2.2982612e-19
0.00073938428
5.0148748e-20
0.00073938428
-4.7203593e-20
0.00073938428
7.0706306e-20
0.00073938428
-1.1945343e-19
0.00073938428
9.4706007e-20
0.00073938428
3.0937296e-19
0.00073938428
-3.6471248e-19
0.00073938428
-1.418075e-19
0.00073938428
1.3347157e-19
0.00073938428
-3.4233227e-19
0.00073938428
-6.9271444e-19
0.00073938428
-9.499397e-19
0.00073938428
-5.8475882e-19
0.00073938428
-1.5483221e-20
0.00073938428
-3.1426968e-19
0.00073938428
3.4506985e-19
0.00073938428
-2.8677502e-20
0.00073938428
-1.67922e-19
0.00073938428
4.4248194e-19
0.00073938428
4.7072976e-19
0.00073938428
2.1298801e-19
0.00073938428
2.3672089e-19
0.00073938428
7.9593685e-19
0.00073938428
4.2026286e-19
0.00073938428
3.9300753e-19
0.00073938428
-1.5789342e-19
0.00073938428
-3.2900854e-19
0.00073938428
2.7087771e-19
0.00073938428
-3.8697214e-20
0.00073938428
-4.2952272e-20
0.00073938428
2.9123956e-20
0.00073938428
5.8153872e-19
0.00073938428
-1.2756377e-19
0.00073938428
-1.8662414e-19
0.00073938428
1.2287322e-18
0.00073938428
8.1519857e-19
0.00073938428
-4.393954e-20
0.00073938428
2.3261262e-19
0.00073938428
8.2582682e-19
0.00073938428
7.0312744e-19
0.00073938428
4.7275849e-19
0.00073938428
5.6415193e-19
0.00073938428
2.7621368e-19
0.00073938428
5.9084763e-20
0.00073938428
6.579272e-19
0.00073938428
3.271317e-19
0.00073938428
3.8916384e-19
0.00073938428
4.1469384e-19
0.00073938428
2.18335e-19
0.00073938428
5.0162171e-19
0.00073938428
6.70624e-19
0.00073938428
5.7681389e-19
0.00073938428
3.1686838e-19
0.00073938428
1.6070543e-19
0.00073938428
-9.378682e-19
0.00073938428
-3.8871963e-19
0.00073938428
6.226959e-19
0.00073938428
-4.6559919e-19
0.00073938428
-8.0338759e-19
0.00073938428
2.0515174e-19
0.00073938428
1.6550287e-19
0.00073938428
-5.2040837e-19
0.00073938428
-5.8869497e-19
0.00073938428
-4.4584403e-19
0.00073938428
-7.6768855e-19
0.00073938428
-8.3690231e-19
0.00073938428
-4.9068544e-19
0.00073938428
2.4830628e-19
0.00073938428
8.8781963e-19
0.00073938428
-1.4032159e-19
0.00073938428
-7.3202802e-19
0.00073938428
-2.8843531e-19
0.00073938428
1.0006075e-18
0.00073938428
4.6575585e-19
0.00073938428
-1.2228789e-18
0.00073938428
-7.2290546e-19
0.00073938428
7.5156213e-19
0.00073938428
7.1065175e-19
0.00073938428
4.5852881e-20
0.00073938428
-4.223813e-19
0.00073938428
3.6035114e-19
0.00073938428
9.1858192e-19
0.00073938428
3.4057515e-19
0.00073938428
-2.9037896e-19
0.00073938428
4.1499834e-19
0.00073938428
-2.2781341e-19
0.00073938428
-3.5933716e-19
0.00073938428
1.1488114e-19
0.00073938428
-2.069605e-19
0.00073938428
-1.010496e-19
0.00073938428
-1.0534974e-19
0.00073938428
6.5802422e-19
0.00073938428
-4.4303328e-19
0.00073938428
-6.0033127e-19
0.00073938428
2.822612e-19
0.00073938428
1.3439692e-19
0.00073938428
-2.1297959e-19
0.00073938428
5.7635278e-19
0.00073938428
6.286489e-19
0.00073938428
-1.1244108e-18
0.00073938428
-1.1891444e-18
0.00073938428
5.4199859e-19
0.00073938428
1.2059277e-18
0.00073938428
-6.7669534e-19
0.00073938428
-3.8721957e-19
0.00073938428
1.2988135e-18
0.00073938428
-4.2503716e-19
0.00073938428
-1.3926987e-18
0.00073938428
1.2740424e-19
0.00073938428
-6.9538665e-19
0.00073938428
-1.3780452e-19
0.00073938428
1.1366933e-18
0.00073938428
-5.50984e-19
0.00073938428
-3.8372487e-19
0.00073938428
2.3620941e-19
0.00073938428
-8.1322955e-19
0.00073938428
-3.5027015e-19
0.00073938428
-1.7110371e-19
0.00073938428
3.7045423e-19
0.00073938428
-1.8008725e-19
0.00073938428
-6.6011591e-19
0.00073938428
-5.4880597e-20
0.00073938428
1.3369471e-19
0.00073938428
1.8909897e-19
0.00073938428
3.362091e-19
0.00073938428
4.8266819e-19
0.00073938428
-6.8372512e-19
0.00073938428
6.9070947e-19
0.00073938428
9.9662404e-19
0.00073938428
-6.3632238e-19
0.00073938428
-1.9098527e-19
0.00073938428
3.0486854e-19
0.00073938428
-7.3289277e-19
0.00073938428
-9.5955337e-19
0.00073938428
-7.221774e-20
0.00073938428
9.0246818e-19
0.00073938428
-4.8590009e-19
0.00073938428
-6.2510926e-19
0.00073938428
7.8414475e-19
0.00073938428
-3.3980401e-19
0.00073938428
-7.0087249e-19
0.00073938428
-5.4555406e-19
0.00073938428
-5.7911746e-19
0.00073938428
1.305585e-18
0.00073938428
5.4746938e-19
0.00073938428
-8.9562324e-19
0.00073938428
6.8636055e-20
0.00073938428
4.9351608e-19
0.00073938428
-1.4550193e-19
0.00073938428
-8.2594868e-19
0.00073938428
-8.3868654e-19
0.00073938428
1.6206745e-19
0.00073938428
1.734548e-18
0.00073938428
9.3409472e-19
0.00073938428
6.0314927e-19
0.00073938428
1.0589145e-18
0.00073938428
-5.4162429e-19
0.00073938428
-1.6091519e-18
0.00073938428
-4.1283965e-19
0.00073938428
2.4102605e-19
0.00073938428
-7.0334874e-19
0.00073938428
1.6977387e-18
0.00073938428
1.0282563e-18
0.00073938428
7.6837669e-19
0.00073938428
1.2747255e-18
0.00073938428
-1.3051383e-18
0.00073938428
-1.2906628e-18
0.00073938428
2.2375888e-19
0.00073938428
1.5738308e-19
0.00073938428
3.0374029e-19
0.00073938428
2.7442465e-19
0.00073938428
-7.2551075e-19
0.00073938428
5.8606605e-19
0.00073938428
-2.8941304e-19
0.00073938428
-2.8589529e-19
0.00073938428
-9.1445869e-19
0.00073938428
-6.2609941e-20
0.00073938428
1.631073e-18
0.00073938428
1.2354414e-18
0.00073938428
-5.9049829e-19
0.00073938428
-1.4583399e-18
0.00073938428
-4.7946523e-19
0.00073938428
-1.1890231e-18
0.00073938428
2.7302703e-20
0.00073938428
3.6408118e-19
0.00073938428
4.7071623e-19
0.00073938428
1.603387e-18
0.00073938428
1.5683874e-18
0.00073938428
-3.4187001e-19
0.00073938428
-5.5289571e-19
0.00073938428
-8.4638382e-19
0.00073938428
-4.7270877e-19
0.00073938428
5.9564933e-19
0.00073938428
-2.3053489e-19
0.00073938428
1.2342494e-18
0.00073938428
1.248631e-18
0.00073938428
4.0907677e-19
0.00073938428
-4.0047117e-19
0.00073938428
4.3955746e-19
0.00073938428
-5.0709857e-19
0.00073938428
-9.3571544e-19
0.00073938428
5.0052066e-19
0.00073938428
1.6356331e-18
0.00073938428
4.1385205e-20
0.00073938428
-7.8170353e-19
0.00073938428
5.4892144e-19
0.00073938428
-2.9596809e-19
0.00073938428
-3.6856148e-19
0.00073938428
-1.8688411e-19
0.00073938428
1.5514014e-19
0.00073938428
4.2635858e-19
0.00073938428
1.4152075e-18
0.00073938428
-3.2086098e-19
0.00073938428
-1.5172912e-18
0.00073938428
5.946727e-19
0.00073938428
3.5846047e-21
0.00073938428
-8.6648319e-19
0.00073938428
-3.2376794e-20
0.00073938428
-1.7735169e-19
0.00073938428
9.7262832e-19
0.00073938428
1.9397775e-18
0.00073938428
-5.7321984e-19
0.00073938428
-1.4358466e-19
0.00073938428
-1.7247021e-18
0.00073938428
-1.2705803e-18
0.00073938428
1.7843664e-18
0.00073938428
-1.5254429e-18
0.00073938428
-1.922293e-19
0.00073938428
3.4925918e-18
0.00073938428
-1.3975167e-18
0.00073938428
-2.0334006e-18
0.00073938428
-1.803265e-19
0.00073938428
-9.83831e-19
0.00073938428
6.8878126e-19
0.00073938428
-1.0866666e-18
0.00073938428
-2.4500362e-19
0.00073938428
2.0166979e-18
0.00073938428
1.1725515e-18
0.00073938428
-7.4113299e-19
0.00073938428
-1.462515e-18
0.00073938428
-1.7624134e-18
0.00073938428
-2.6288737e-19
0.00073938428
3.7689622e-19
0.00073938428
-2.2214688e-18
0.00073938428
8.9425343e-19
0.00073938428
5.3995413e-20
0.00073938428
-2.4131511e-18
0.00073938428
9.5426364e-19
0.00073938428
8.3553489e-20
0.00073938428
-2.3517186e-18
0.00073938428
-5.3173362e-19
0.00073938428
-8.2948458e-19
0.00073938428
-8.545274e-19
0.00073938428
2.2653656e-18
0.00073938428
-1.1600087e-18
0.00073938428
-5.3784385e-18
0.00073938428
-5.0030918e-18
0.00073938428
-9.9358849e-18
-1.927369e-17
0.0012189745
-1.8347153e-17
0.0012189745
-1.4653288e-17
0.0012189745
-1.0116059e-17
0.0012189745
-6.9840086e-18
0.0012189745
-4.5893624e-18
0.0012189745
-3.0477442e-18
0.0012189745
-1.9493203e-18
0.0012189745
-1.5201654e-18
0.0012189745
-1.4265766e-18
0.0012189745
-1.0932824e-18
0.0012189745
-1.4496592e-18
0.0012189745
-1.0595291e-18
0.0012189745
-9.4229274e-19
0.0012189745
-8.4364701e-19
0.0012189745
-1.1327446e-18
0.0012189745
-1.3753941e-18
0.0012189745
-1.5613223e-18
0.0012189745
-1.724462e-18
0.0012189745
-1.7574585e-18
0.0012189745
-1.2201004e-18
0.0012189745
-7.0117221e-19
0.0012189745
-5.5182817e-19
0.0012189745
-1.2986968e-19
0.0012189745
-3.1805848e-20
0.0012189745
3.1983796e-19
0.0012189745
2.3336281e-19
0.0012189745
-5.685525e-20
0.0012189745
7.9483099e-20
0.0012189745
-9.3197911e-20
0.0012189745
-1.0268125e-19
0.0012189745
-1.1985068e-19
0.0012189745
9.13216e-20
0.0012189745
3.8316234e-19
0.0012189745
2.2494349e-19
0.0012189745
1.1259736e-19
0.0012189745
9.6721764e-20
0.0012189745
-3.5907603e-19
0.0012189745
-2.8508018e-19
0.0012189745
1.6875697e-19
0.0012189745
1.7356741e-19
0.0012189745
1.6192352e-19
0.0012189745
-1.5366619e-19
0.0012189745
-3.6537009e-19
0.0012189745
-3.4378438e-19
0.0012189745
1.2421763e-19
0.0012189745
3.2944401e-19
0.0012189745
2.4873088e-19
0.0012189745
-4.4508203e-19
0.0012189745
-6.3315831e-19
0.0012189745
-2.0910252e-19
0.0012189745
-4.1792467e-19
0.0012189745
-1.0844102e-18
0.0012189745
-1.6700041e-18
0.0012189745
-7.8490343e-19
0.0012189745
-3.3218875e-19
0.0012189745
-5.7895018e-19
0.0012189745
2.6676237e-19
0.0012189745
2.8317143e-19
0.0012189745
2.1003815e-19
0.0012189745
7.0586738e-19
0.0012189745
5.8791326e-19
0.0012189745
9.0116574e-19
0.0012189745
6.5625041e-19
0.0012189745
8.0017214e-19
0.0012189745
1.0322535e-18
0.0012189745
7.0123002e-19
0.0012189745
2.9428167e-20
0.0012189745
-1.639587e-19
0.0012189745
2.9173405e-19
0.0012189745
2.1851404e-19
0.0012189745
3.2159117e-19
0.0012189745
3.1886143e-19
0.0012189745
8.6852944e-19
0.0012189745
2.682803e-19
0.0012189745
1.6662622e-19
0.0012189745
1.802075e-18
0.0012189745
1.6649595e-18
0.0012189745
5.2562723e-19
0.0012189745
5.1904182e-19
0.0012189745
9.4707238e-19
0.0012189745
1.3290384e-18
0.0012189745
8.2593588e-19
0.0012189745
1.0514065e-18
0.0012189745
7.3894047e-19
0.0012189745
6.060815e-19
0.0012189745
1.163277e-18
0.0012189745
6.6410476e-19
0.0012189745
5.6113219e-19
0.0012189745
5.3071485e-19
0.0012189745
1.0168673e-18
0.0012189745
1.2734788e-18
0.0012189745
9.1889692e-19
0.0012189745
9.5715463e-19
0.0012189745
9.2515474e-19
0.0012189745
2.3162267e-19
0.0012189745
-5.7439581e-19
0.0012189745
9.4742495e-20
0.0012189745
6.869138e-19
0.0012189745
-1.1801932e-18
0.0012189745
-1.726902e-18
0.0012189745
2.1817109e-19
0.0012189745
2.85197e-19
0.0012189745
-4.693793e-19
0.0012189745
-1.0785121e-18
0.0012189745
-1.0230535e-18
0.0012189745
-1.0882873e-18
0.0012189745
-1.4467436e-18
0.0012189745
-9.1124846e-19
0.0012189745
6.5294222e-19
0.0012189745
7.9764754e-19
0.0012189745
-2.1372466e-19
0.0012189745
-4.5941485e-19
0.0012189745
-2.4856954e-19
0.0012189745
8.7361716e-19
0.0012189745
4.4558543e-19
0.0012189745
-1.2048774e-18
0.0012189745
-4.9511195e-19
0.0012189745
1.0473822e-18
0.0012189745
8.276136e-19
0.0012189745
-2.9322876e-20
0.0012189745
-3.6210887e-19
0.0012189745
4.5458056e-19
0.0012189745
9.5337155e-19
0.0012189745
3.7187941e-19
0.0012189745
6.6706536e-20
0.0012189745
4.8166184e-19
0.0012189745
-2.4815968e-19
0.0012189745
-4.1636489e-19
0.0012189745
4.6301182e-20
0.0012189745
-4.7235323e-19
0.0012189745
1.9687243e-19
0.0012189745
1.1933576e-19
0.0012189745
6.3264503e-19
0.0012189745
-3.8033096e-19
0.0012189745
-6.9852475e-19
0.0012189745
3.3265268e-19
0.0012189745
-3.3045862e-19
0.0012189745
-8.7327672e-20
0.0012189745
1.1140089e-18
0.0012189745
4.4177373e-19
0.0012189745
-1.2014601e-18
0.0012189745
-1.5950814e-18
0.0012189745
8.5183364e-19
0.0012189745
1.3699644e-18
0.0012189745
-1.1455037e-18
0.0012189745
-5.533508e-19
0.0012189745
1.6810055e-18
0.0012189745
-4.1614302e-19
0.0012189745
-1.932819e-18
0.0012189745
-4.9552601e-19
0.0012189745
-8.5985573e-19
0.0012189745
3.5089472e-19
0.0012189745
9.4358341e-19
0.0012189745
-8.4442976e-19
0.0012189745
-5.1203228e-19
0.0012189745
-2.4974119e-19
0.0012189745
-8.7488686e-19
0.0012189745
-9.2507284e-19
0.0012189745
-7.3114437e-19
0.0012189745
1.1589062e-18
0.0012189745
3.6629416e-19
0.0012189745
-9.4380873e-19
0.0012189745
-6.3608531e-19
0.0012189745
-1.9847071e-20
0.0012189745
3.7910289e-19
0.0012189745
5.2471678e-19
0.0012189745
2.2848116e-19
0.0012189745
-6.9104251e-19
0.0012189745
9.667813e-19
0.0012189745
1.4957151e-18
0.0012189745
-3.536638e-19
0.0012189745
-6.837323e-19
0.0012189745
-3.7506522e-20
0.0012189745
-8.3402172e-19
0.0012189745
-1.3090516e-18
0.0012189745
6.1157499e-20
0.0012189745
6.2880852e-19
0.0012189745
-9.8405768e-19
0.0012189745
-7.5517327e-19
0.0012189745
1.1773854e-18
0.0012189745
-1.3444088e-19
0.0012189745
-9.4058092e-19
0.0012189745
-5.7540853e-19
0.0012189745
-4.5107388e-19
0.0012189745
1.0469709e-18
0.0012189745
5.3904638e-19
0.0012189745
-6.9235276e-19
0.0012189745
-4.7387312e-20
0.0012189745
5.3669725e-19
0.0012189745
-4.6820633e-19
0.0012189745
-9.9052075e-19
0.0012189745
-8.5945342e-19
0.0012189745
4.3159357e-19
0.0012189745
2.5575742e-18
0.0012189745
1.2900383e-18
0.0012189745
1.3056833e-18
0.0012189745
1.8509508e-18
0.0012189745
-9.2959847e-19
0.0012189745
-1.917083e-18
0.0012189745
-2.7276296e-19
0.0012189745
1.1871943e-19
0.0012189745
-4.0957751e-19
0.0012189745
2.1746135e-18
0.0012189745
1.2910217e-18
0.0012189745
1.7700979e-18
0.0012189745
1.9322967e-18
0.0012189745
-1.7411541e-18
0.0012189745
-1.8869955e-18
0.0012189745
-1.3032185e-19
0.0012189745
3.6036695e-19
0.0012189745
1.1505324e-19
0.0012189745
4.611842e-19
0.0012189745
-5.0161856e-19
0.0012189745
5.8491109e-19
0.0012189745
-6.7818654e-19
0.0012189745
-3.1345746e-19
0.0012189745
-1.1537418e-18
0.0012189745
-2.2038075e-19
0.0012189745
2.4362693e-18
0.0012189745
1.1829419e-18
0.0012189745
-1.1311236e-18
0.0012189745
-1.6851489e-18
0.0012189745
-7.2221863e-19
0.0012189745
-1.02853e-18
0.0012189745
-1.1028024e-19
0.0012189745
-2.427366e-19
0.0012189745
8.6101825e-19
0.0012189745
2.316588e-18
0.0012189745
2.1799583e-18
0.0012189745
-2.7317947e-19
0.0012189745
-4.5664555e-19
0.0012189745
-6.8293743e-19
0.0012189745
-8.9649411e-19
0.0012189745
8.0636218e-19
0.0012189745
7.3935102e-20
0.0012189745
1.5034461e-18
0.0012189745
1.9698513e-18
0.0012189745
4.3877925e-19
0.0012189745
4.8789889e-19
0.0012189745
1.802189e-19
0.0012189745
-2.0789421e-19
0.0012189745
-3.6002181e-19
0.0012189745
8.743662e-20
0.0012189745
1.7351875e-18
0.0012189745
1.2028004e-19
0.0012189745
-7.2968068e-19
0.0012189745
1.3442448e-19
0.0012189745
-2.6770082e-19
0.0012189745
2.9523595e-19
0.0012189745
5.6182588e-19
0.0012189745
4.421063e-20
0.0012189745
3.2678649e-19
0.0012189745
1.4436236e-18
0.0012189745
-1.5572382e-19
0.0012189745
-1.6614886e-18
0.0012189745
-1.717116e-19
0.0012189745
3.4090317e-19
0.0012189745
-5.5161573e-19
0.0012189745
-2.6852128e-19
0.0012189745
-8.5724525e-19
0.0012189745
1.7033607e-18
0.0012189745
2.6292156e-18
0.0012189745
-3.589786e-19
0.0012189745
-4.0481003e-19
0.0012189745
-2.9872326e-18
0.0012189745
-2.6145291e-18
0.0012189745
2.2734788e-18
0.0012189745
-4.8180573e-19
0.0012189745
-1.6472804e-19
0.0012189745
3.6440935e-18
0.0012189745
-1.3545479e-18
0.0012189745
-3.1336107e-18
0.0012189745
-7.6240345e-19
0.0012189745
-1.5466112e-18
0.0012189745
-6.7027606e-19
0.0012189745
2.6010852e-19
0.0012189745
2.6719188e-19
0.0012189745
1.500731e-18
0.0012189745
1.2123927e-18
0.0012189745
-3.7399812e-19
0.0012189745
-2.2249215e-18
0.0012189745
-3.308286e-18
0.0012189745
-4.8498494e-19
0.0012189745
6.8186595e-19
0.0012189745
-3.4007129e-18
0.0012189745
5.8806608e-19
0.0012189745
4.2607233e-19
0.0012189745
-3.6317724e-18
0.0012189745
8.3245481e-19
0.0012189745
-6.2274109e-19
0.0012189745
-4.1040642e-18
0.0012189745
-9.2502913e-19
0.0012189745
-2.1552632e-19
0.0012189745
-1.2482756e-18
0.0012189745
2.1020239e-18
0.0012189745
-2.164011e-18
0.0012189745
-6.742014e-18
0.0012189745
-5.9042732e-18
0.0012189745
-1.0335145e-17
-1.5315778e-17
0.0016885657
-1.3564243e-17
0.0016885657
-1.2501863e-17
0.0016885657
-9.7864384e-18
0.0016885657
-7.3105193e-18
0.0016885657
-5.0604095e-18
0.0016885657
-3.495958e-18
0.0016885657
-2.4606588e-18
0.0016885657
-1.991731e-18
0.0016885657
-2.1396626e-18
0.0016885657
-1.9996269e-18
0.0016885657
-1.7524502e-18
0.0016885657
-2.1763851e-18
0.0016885657
-1.9830049e-18
0.0016885657
-1.7135788e-18
0.0016885657
-2.2424164e-18
0.0016885657
-2.8193606e-18
0.0016885657
-2.9428276e-18
0.0016885657
-2.9948708e-18
0.0016885657
-2.2021279e-18
0.0016885657
-1.6296053e-18
0.0016885657
-1.4970995e-18
0.0016885657
-8.8858156e-19
0.0016885657
-3.0301932e-19
0.0016885657
-1.6148643e-19
0.0016885657
6.0222409e-20
0.0016885657
-6.0161097e-20
0.0016885657
-1.15405e-19
0.0016885657
3.7208386e-19
0.0016885657
-3.9428492e-19
0.0016885657
-7.4376788e-19
0.0016885657
-3.003081e-19
0.0016885657
5.3693311e-19
0.0016885657
4.5683904e-19
0.0016885657
1.6115497e-19
0.0016885657
3.4166638e-20
0.0016885657
-3.9631673e-21
0.0016885657
-4.2665451e-19
0.0016885657
8.6774159e-21
0.0016885657
4.7508761e-19
0.0016885657
-2.6917155e-19
0.0016885657
-2.4368887e-19
0.0016885657
-3.4658158e-19
0.0016885657
-5.3944423e-19
0.0016885657
-5.7033333e-19
0.0016885657
-6.9423596e-20
0.0016885657
2.9239461e-19
0.0016885657
-1.4882198e-19
0.0016885657
-5.2747151e-19
0.0016885657
-3.6849857e-19
0.0016885657
-3.2429448e-19
0.0016885657
-1.0601372e-18
0.0016885657
-2.2266542e-18
0.0016885657
-2.1437002e-18
0.0016885657
-8.356838e-19
0.0016885657
-5.4157519e-19
0.0016885657
-1.088139e-18
0.0016885657
-1.0699484e-19
0.0016885657
3.1412461e-19
0.0016885657
8.0334529e-19
0.0016885657
6.6357747e-19
0.0016885657
1.1356918e-18
0.0016885657
1.5758711e-18
0.0016885657
1.4700807e-18
0.0016885657
1.2232572e-18
0.0016885657
1.2513179e-18
0.0016885657
1.2857788e-18
0.0016885657
1.6749159e-19
0.0016885657
-3.3748742e-19
0.0016885657
7.5666541e-19
0.0016885657
5.4981319e-19
0.0016885657
1.7181728e-19
0.0016885657
9.9211676e-19
0.0016885657
1.5502504e-18
0.0016885657
8.842363e-19
0.0016885657
4.5561255e-19
0.0016885657
1.9547282e-18
0.0016885657
2.3592427e-18
0.0016885657
1.1662201e-18
0.0016885657
9.0838235e-19
0.0016885657
2.0254623e-18
0.0016885657
2.195515e-18
0.0016885657
1.3381205e-18
0.0016885657
1.3425638e-18
0.0016885657
1.0804593e-18
0.0016885657
1.2121858e-18
0.0016885657
1.676227e-18
0.0016885657
1.3312367e-18
0.0016885657
1.2190838e-18
0.0016885657
1.3531133e-18
0.0016885657
1.9257496e-18
0.0016885657
2.5705312e-18
0.0016885657
1.4763844e-18
0.0016885657
1.3927053e-18
0.0016885657
9.2408641e-19
0.0016885657
3.6220259e-19
0.0016885657
-1.7732577e-19
0.0016885657
2.8936336e-19
0.0016885657
4.0805847e-19
0.0016885657
-1.1287723e-18
0.0016885657
-1.6922377e-18
0.0016885657
-3.21361e-19
0.0016885657
2.2743799e-19
0.0016885657
-5.3794852e-19
0.0016885657
-1.6237762e-18
0.0016885657
-1.562182e-18
0.0016885657
-1.5266416e-18
0.0016885657
-1.7296909e-18
0.0016885657
-1.5247648e-18
0.0016885657
1.0453001e-18
0.0016885657
7.7236372e-19
0.0016885657
-3.9955441e-19
0.0016885657
-4.8957757e-19
0.0016885657
-2.0371431e-19
0.0016885657
9.7361176e-19
0.0016885657
4.1479599e-19
0.0016885657
-6.6401993e-19
0.0016885657
-7.7487681e-19
0.0016885657
8.3946916e-19
0.0016885657
1.0589787e-18
0.0016885657
1.2061601e-19
0.0016885657
-6.0854876e-19
0.0016885657
4.9080953e-19
0.0016885657
1.2750374e-18
0.0016885657
5.1960563e-20
0.0016885657
3.4849043e-19
0.0016885657
4.9146001e-19
0.0016885657
4.8080317e-20
0.0016885657
-2.3940285e-19
0.0016885657
-1.9401639e-19
0.0016885657
1.3322093e-20
0.0016885657
3.0622878e-19
0.0016885657
1.1501964e-19
0.0016885657
5.1843953e-19
0.0016885657
-3.7528197e-19
0.0016885657
-6.8691087e-19
0.0016885657
5.1232753e-19
0.0016885657
-4.1319491e-19
0.0016885657
1.1300978e-19
0.0016885657
1.5959427e-18
0.0016885657
1.3028963e-19