/*--------------------------------*- C++ -*----------------------------------*\
| =========                 |                                                 |
| \\      /  F ield         | OpenFOAM: The Open Source CFD Toolbox           |
|  \\    /   O peration     | Version:  2406                                  |
|   \\  /    A nd           | Website:  www.openfoam.com                      |
|    \\/     M anipulation  |                                                 |
\*---------------------------------------------------------------------------*/
FoamFile
{
    version     2.0;
    format      ascii;
    arch        "LSB;label=32;scalar=64";
    class       surfaceScalarField;
    location    "14";
    object      phi_0;
}
// * * * * * * * * * * * * * * * * * * * * * * * * * * * * * * * * * * * * * //

dimensions      [0 3 -1 0 0 0 0];

oriented        oriented;

internalField   nonuniform List<scalar> 
59600
(
0.00024979467
-6.3514991e-17
0.00024979467
-2.5198776e-17
0.00024979467
-8.6403303e-18
0.00024979467
-4.1983696e-18
0.00024979467
-2.3704905e-18
0.00024979467
-1.415634e-18
0.00024979467
-9.1797416e-19
0.00024979467
-6.2557388e-19
0.00024979467
-4.4000777e-19
0.00024979467
-3.9175317e-19
0.00024979467
-2.8866532e-19
0.00024979467
-2.0559943e-19
0.00024979467
-2.7450039e-19
0.00024979467
-1.0403731e-19
0.00024979467
-9.7651633e-20
0.00024979467
-2.3268294e-19
0.00024979467
-2.1889299e-19
0.00024979467
-4.0591068e-19
0.00024979467
-3.1441549e-19
0.00024979467
-9.4057228e-20
0.00024979467
-2.0576169e-19
0.00024979467
-5.2170685e-20
0.00024979467
8.8454312e-20
0.00024979467
4.3455052e-20
0.00024979467
-3.8321907e-20
0.00024979467
1.0233739e-19
0.00024979467
6.7261019e-20
0.00024979467
3.304106e-20
0.00024979467
-1.7976661e-19
0.00024979467
-1.4027099e-20
0.00024979467
9.4996317e-20
0.00024979467
-4.6807157e-20
0.00024979467
8.9990148e-20
0.00024979467
6.8362072e-20
0.00024979467
-1.056941e-19
0.00024979467
1.3867712e-20
0.00024979467
2.9870302e-20
0.00024979467
5.4881107e-20
0.00024979467
3.754011e-20
0.00024979467
-1.0474659e-19
0.00024979467
2.0031097e-19
0.00024979467
-1.1229984e-19
0.00024979467
-1.8370147e-20
0.00024979467
1.1452577e-19
0.00024979467
-1.8913325e-19
0.00024979467
-2.2915923e-21
0.00024979467
7.1608193e-20
0.00024979467
-1.2398717e-19
0.00024979467
2.5240899e-20
0.00024979467
1.6781303e-19
0.00024979467
-3.3367401e-20
0.00024979467
-2.1829215e-19
0.00024979467
-5.5710398e-19
0.00024979467
-2.7931888e-19
0.00024979467
1.538474e-19
0.00024979467
-1.3501933e-19
0.00024979467
1.5643965e-19
0.00024979467
-1.0555462e-20
0.00024979467
-1.4099135e-19
0.00024979467
1.4706614e-19
0.00024979467
9.7218051e-20
0.00024979467
-1.2507014e-20
0.00024979467
1.0355208e-19
0.00024979467
3.9154859e-19
0.00024979467
-1.3855298e-20
0.00024979467
6.7264119e-20
0.00024979467
-1.4883241e-19
0.00024979467
-2.1601072e-20
0.00024979467
2.0441353e-19
0.00024979467
-1.4178144e-19
0.00024979467
-1.8668125e-19
0.00024979467
1.0900038e-19
0.00024979467
4.2688658e-19
0.00024979467
-7.0627039e-20
0.00024979467
-2.5478656e-19
0.00024979467
5.6400504e-19
0.00024979467
2.7655378e-19
0.00024979467
-2.6879065e-19
0.00024979467
1.6377629e-19
0.00024979467
3.623774e-19
0.00024979467
1.9790065e-19
0.00024979467
1.0953823e-19
0.00024979467
1.9055909e-19
0.00024979467
4.7432916e-20
0.00024979467
-2.3227252e-19
0.00024979467
3.5064828e-19
0.00024979467
1.7158386e-19
0.00024979467
-1.2779246e-19
0.00024979467
1.2346438e-19
0.00024979467
-1.6976098e-20
0.00024979467
8.3759071e-20
0.00024979467
3.6906647e-19
0.00024979467
1.4921038e-19
0.00024979467
-4.1529887e-20
0.00024979467
-4.6876764e-20
0.00024979467
-5.3154055e-19
0.00024979467
-1.619414e-20
0.00024979467
3.3832642e-19
0.00024979467
-2.4808004e-19
0.00024979467
-2.9459497e-19
0.00024979467
2.0759633e-20
0.00024979467
9.802704e-20
0.00024979467
-2.7303756e-19
0.00024979467
-2.1349473e-19
0.00024979467
2.8924086e-20
0.00024979467
-5.5822606e-19
0.00024979467
-3.9137599e-19
0.00024979467
6.4402053e-20
0.00024979467
4.9652153e-20
0.00024979467
3.9971595e-19
0.00024979467
-1.5617402e-19
0.00024979467
-4.8664646e-19
0.00024979467
-2.6935316e-20
0.00024979467
5.3779585e-19
0.00024979467
2.4369144e-19
0.00024979467
-4.5636737e-19
0.00024979467
-4.5661359e-19
0.00024979467
2.5709606e-19
0.00024979467
3.9599586e-19
0.00024979467
-1.1036139e-19
0.00024979467
-8.8416589e-20
0.00024979467
1.4854148e-19
0.00024979467
5.5678823e-19
0.00024979467
7.2917974e-20
0.00024979467
-5.6856437e-19
0.00024979467
2.4350685e-19
0.00024979467
1.7909318e-19
0.00024979467
-2.6742242e-19
0.00024979467
4.2570426e-20
0.00024979467
-3.6737192e-20
0.00024979467
-2.4939265e-19
0.00024979467
-4.8307363e-20
0.00024979467
5.4178253e-19
0.00024979467
-3.6884711e-19
0.00024979467
-4.7455608e-19
0.00024979467
3.396809e-19
0.00024979467
2.1278714e-19
0.00024979467
-2.4189757e-19
0.00024979467
2.1219375e-19
0.00024979467
2.6627003e-19
0.00024979467
-6.0926242e-19
0.00024979467
-3.3784405e-19
0.00024979467
2.0107359e-19
0.00024979467
5.1684866e-19
0.00024979467
-1.6918636e-19
0.00024979467
-1.7340357e-19
0.00024979467
4.8312797e-19
0.00024979467
-2.4259334e-19
0.00024979467
-6.187571e-19
0.00024979467
3.8193199e-19
0.00024979467
-3.6191344e-19
0.00024979467
-2.1929214e-19
0.00024979467
8.4838671e-19
0.00024979467
-4.8061525e-19
0.00024979467
-2.6416622e-19
0.00024979467
3.4293673e-19
0.00024979467
-5.3642928e-19
0.00024979467
-1.8317143e-19
0.00024979467
1.2611133e-19
0.00024979467
2.6793694e-19
0.00024979467
-1.3515317e-19
0.00024979467
-3.3352853e-19
0.00024979467
-1.200746e-19
0.00024979467
5.8708368e-20
0.00024979467
9.8619042e-20
0.00024979467
2.1079072e-19
0.00024979467
4.0595686e-19
0.00024979467
-7.4719336e-19
0.00024979467
5.2371516e-19
0.00024979467
5.8535941e-19
0.00024979467
-9.2431556e-19
0.00024979467
3.6956949e-19
0.00024979467
4.8008477e-19
0.00024979467
-8.5745828e-19
0.00024979467
-2.5171754e-19
0.00024979467
1.2409011e-20
0.00024979467
3.0386305e-19
0.00024979467
8.1603107e-21
0.00024979467
-2.7331692e-19
0.00024979467
2.9598321e-19
0.00024979467
-1.3464805e-19
0.00024979467
-3.7834242e-19
0.00024979467
-2.0923417e-19
0.00024979467
-2.3100988e-19
0.00024979467
8.5948445e-19
0.00024979467
9.4473086e-20
0.00024979467
-6.0677891e-19
0.00024979467
3.0673264e-19
0.00024979467
5.9097895e-20
0.00024979467
-5.5679977e-20
0.00024979467
-3.2987101e-19
0.00024979467
-3.0249006e-19
0.00024979467
-2.9153584e-19
0.00024979467
7.5450335e-19
0.00024979467
6.9018185e-19
0.00024979467
9.8205642e-21
0.00024979467
4.0936271e-19
0.00024979467
2.1085567e-19
0.00024979467
-9.0916283e-19
0.00024979467
-5.5013487e-19
0.00024979467
2.888402e-19
0.00024979467
-4.7129535e-19
0.00024979467
7.0843117e-19
0.00024979467
5.6987086e-19
0.00024979467
2.8188182e-19
0.00024979467
1.4586617e-19
0.00024979467
-5.1774129e-19
0.00024979467
-2.1055967e-19
0.00024979467
1.8323014e-19
0.00024979467
-1.1944769e-19
0.00024979467
3.1065548e-19
0.00024979467
1.0661253e-20
0.00024979467
-5.769279e-19
0.00024979467
7.4893497e-19
0.00024979467
-2.3640864e-19
0.00024979467
-2.8470622e-19
0.00024979467
-1.5811296e-19
0.00024979467
-5.0909879e-21
0.00024979467
5.1393202e-19
0.00024979467
6.9249559e-19
0.00024979467
-1.4240148e-19
0.00024979467
-8.0566105e-19
0.00024979467
-3.1648612e-19
0.00024979467
-5.0265682e-19
0.00024979467
1.1874257e-19
0.00024979467
1.1218543e-19
0.00024979467
2.8332379e-19
0.00024979467
6.7033013e-19
0.00024979467
6.0368395e-19
0.00024979467
1.5402723e-19
0.00024979467
-4.0306719e-19
0.00024979467
-8.4156862e-19
0.00024979467
2.4443768e-19
0.00024979467
2.7478476e-19
0.00024979467
-4.6349855e-19
0.00024979467
6.428334e-19
0.00024979467
4.4034832e-19
0.00024979467
5.2966493e-19
0.00024979467
-4.67219e-19
0.00024979467
7.5720237e-20
0.00024979467
-1.7842543e-19
0.00024979467
-6.4033446e-19
0.00024979467
4.4518757e-19
0.00024979467
8.2140295e-19
0.00024979467
-3.9518245e-19
0.00024979467
-2.9006399e-19
0.00024979467
5.0909623e-19
0.00024979467
-4.4232183e-19
0.00024979467
-6.9132965e-20
0.00024979467
-4.0548685e-19
0.00024979467
9.2220854e-20
0.00024979467
2.6030312e-19
0.00024979467
9.8074262e-19
0.00024979467
-4.0689561e-19
0.00024979467
-7.0133489e-19
0.00024979467
6.5050988e-19
0.00024979467
-2.4049934e-19
0.00024979467
-6.4285538e-19
0.00024979467
3.5581658e-19
0.00024979467
-1.4909631e-19
0.00024979467
2.9436083e-19
0.00024979467
9.5342597e-19
0.00024979467
-9.7204897e-19
0.00024979467
2.6112433e-19
0.00024979467
-6.1429812e-19
0.00024979467
-4.5837407e-19
0.00024979467
9.6789562e-19
0.00024979467
-1.1608588e-18
0.00024979467
-3.1460218e-20
0.00024979467
2.2958698e-18
0.00024979467
-1.0068192e-18
0.00024979467
-1.1828439e-18
0.00024979467
1.3384164e-19
0.00024979467
-6.546542e-19
0.00024979467
9.7742441e-19
0.00024979467
-1.2119631e-18
0.00024979467
-1.3782502e-19
0.00024979467
1.4196665e-18
0.00024979467
6.5935465e-19
0.00024979467
-6.9685701e-19
0.00024979467
-7.6165269e-19
0.00024979467
-3.4254918e-19
0.00024979467
-6.8020109e-20
0.00024979467
1.0681188e-19
0.00024979467
-1.0473153e-18
0.00024979467
9.1635734e-19
0.00024979467
-4.5892844e-19
0.00024979467
-1.0500559e-18
0.00024979467
5.4832291e-19
0.00024979467
3.1774072e-19
0.00024979467
-1.1593313e-18
0.00024979467
-3.9718421e-19
0.00024979467
-5.7934831e-19
0.00024979467
-1.0160431e-18
0.00024979467
1.168118e-18
0.00024979467
-4.9301986e-19
0.00024979467
-4.0565623e-18
0.00024979467
-3.9375062e-18
0.00024979467
-8.5125555e-18
-2.5798904e-17
0.0007393842
-3.3246525e-17
0.0007393842
-2.3249788e-17
0.0007393842
-1.2605211e-17
0.0007393842
-7.6092101e-18
0.0007393842
-4.6471839e-18
0.0007393842
-2.9142659e-18
0.0007393842
-1.9246428e-18
0.0007393842
-1.4773064e-18
0.0007393842
-1.1081052e-18
0.0007393842
-1.1608978e-18
0.0007393842
-9.164985e-19
0.0007393842
-5.9455237e-19
0.0007393842
-6.069225e-19
0.0007393842
-4.6292427e-19
0.0007393842
-6.6180705e-19
0.0007393842
-6.1125729e-19
0.0007393842
-1.0344413e-18
0.0007393842
-1.0842511e-18
0.0007393842
-9.033007e-19
0.0007393842
-5.3775093e-19
0.0007393842
-3.774231e-19
0.0007393842
-3.6405877e-19
0.0007393842
8.9498522e-20
0.0007393842
3.861773e-20
0.0007393842
1.5669905e-19
0.0007393842
1.6901819e-19
0.0007393842
8.3322745e-20
0.0007393842
-4.419557e-20
0.0007393842
-1.3303362e-19
0.0007393842
-1.9576719e-19
0.0007393842
-5.6924228e-20
0.0007393842
2.3424559e-19
0.0007393842
4.3709892e-20
0.0007393842
1.6824964e-19
0.0007393842
6.1413623e-20
0.0007393842
1.3555244e-19
0.0007393842
-1.5346903e-19
0.0007393842
-9.7408139e-20
0.0007393842
1.0935044e-19
0.0007393842
-1.6238782e-19
0.0007393842
2.2525292e-19
0.0007393842
1.1219734e-19
0.0007393842
-6.4003127e-20
0.0007393842
8.2485865e-21
0.0007393842
-1.1375395e-19
0.0007393842
6.6637265e-20
0.0007393842
2.3941022e-19
0.0007393842
-4.4213971e-19
0.0007393842
-1.8160161e-19
0.0007393842
1.4388296e-19
0.0007393842
-3.1955648e-19
0.0007393842
-8.1583077e-19
0.0007393842
-1.0705493e-18
0.0007393842
-5.6103938e-19
0.0007393842
-6.1315303e-21
0.0007393842
-2.7130024e-19
0.0007393842
3.5569251e-19
0.0007393842
-3.8570443e-20
0.0007393842
-2.0137427e-19
0.0007393842
3.4807495e-19
0.0007393842
3.0538859e-19
0.0007393842
1.3714163e-19
0.0007393842
1.9991682e-19
0.0007393842
7.8075944e-19
0.0007393842
4.2664841e-19
0.0007393842
4.4153746e-19
0.0007393842
-1.0192839e-19
0.0007393842
-3.1079656e-19
0.0007393842
3.889533e-19
0.0007393842
-5.5486748e-20
0.0007393842
-1.5799363e-20
0.0007393842
7.211798e-20
0.0007393842
5.8367062e-19
0.0007393842
-7.5626668e-20
0.0007393842
-9.8570267e-20
0.0007393842
1.2401927e-18
0.0007393842
8.319182e-19
0.0007393842
-9.6430635e-20
0.0007393842
2.5132285e-19
0.0007393842
8.0133936e-19
0.0007393842
7.2546777e-19
0.0007393842
4.6192406e-19
0.0007393842
6.2176099e-19
0.0007393842
2.1261195e-19
0.0007393842
-2.0833951e-20
0.0007393842
5.9749575e-19
0.0007393842
2.4421058e-19
0.0007393842
2.270878e-19
0.0007393842
3.7952745e-19
0.0007393842
1.4928382e-19
0.0007393842
4.1235887e-19
0.0007393842
6.2208561e-19
0.0007393842
5.5555832e-19
0.0007393842
2.5966642e-19
0.0007393842
9.6455897e-20
0.0007393842
-9.2109635e-19
0.0007393842
-2.769493e-19
0.0007393842
6.4253861e-19
0.0007393842
-5.5471774e-19
0.0007393842
-9.4530323e-19
0.0007393842
5.6280675e-20
0.0007393842
7.8261495e-20
0.0007393842
-5.8592603e-19
0.0007393842
-7.2024656e-19
0.0007393842
-4.8697752e-19
0.0007393842
-7.2547201e-19
0.0007393842
-9.560177e-19
0.0007393842
-5.4074444e-19
0.0007393842
3.3918014e-19
0.0007393842
8.3348379e-19
0.0007393842
-1.4339531e-19
0.0007393842
-7.2290466e-19
0.0007393842
-2.9421474e-19
0.0007393842
1.0122928e-18
0.0007393842
5.1064046e-19
0.0007393842
-1.179674e-18
0.0007393842
-7.6234189e-19
0.0007393842
7.4421535e-19
0.0007393842
6.8158178e-19
0.0007393842
7.3837006e-20
0.0007393842
-3.3547185e-19
0.0007393842
3.5343366e-19
0.0007393842
8.7201332e-19
0.0007393842
2.7067897e-19
0.0007393842
-3.139122e-19
0.0007393842
4.5539767e-19
0.0007393842
-2.2806662e-19
0.0007393842
-2.5081913e-19
0.0007393842
4.1590288e-20
0.0007393842
-3.5457073e-19
0.0007393842
-7.7426316e-20
0.0007393842
-8.080889e-20
0.0007393842
6.6069318e-19
0.0007393842
-5.667415e-19
0.0007393842
-5.5696552e-19
0.0007393842
3.8397247e-19
0.0007393842
6.8380329e-20
0.0007393842
-3.245122e-19
0.0007393842
5.9448013e-19
0.0007393842
6.6597598e-19
0.0007393842
-1.1017741e-18
0.0007393842
-1.2526542e-18
0.0007393842
4.1513529e-19
0.0007393842
1.2548587e-18
0.0007393842
-6.2250964e-19
0.0007393842
-3.7084155e-19
0.0007393842
1.1679116e-18
0.0007393842
-3.5500242e-19
0.0007393842
-1.3214248e-18
0.0007393842
1.6649585e-19
0.0007393842
-7.0760544e-19
0.0007393842
-2.4815555e-19
0.0007393842
1.0983935e-18
0.0007393842
-5.415878e-19
0.0007393842
-2.1694055e-19
0.0007393842
3.6161689e-19
0.0007393842
-7.5783331e-19
0.0007393842
-3.45343e-19
0.0007393842
-2.4025917e-19
0.0007393842
3.3296194e-19
0.0007393842
-2.666877e-19
0.0007393842
-6.1291185e-19
0.0007393842
9.3496265e-21
0.0007393842
1.1633504e-19
0.0007393842
1.2159204e-19
0.0007393842
2.702744e-19
0.0007393842
4.2229012e-19
0.0007393842
-7.0658777e-19
0.0007393842
6.2784956e-19
0.0007393842
9.8816562e-19
0.0007393842
-7.6922992e-19
0.0007393842
-1.55879e-19
0.0007393842
3.7316357e-19
0.0007393842
-6.4475447e-19
0.0007393842
-1.0418608e-18
0.0007393842
-1.1967523e-19
0.0007393842
8.8152459e-19
0.0007393842
-3.6464707e-19
0.0007393842
-5.5454553e-19
0.0007393842
7.9194292e-19
0.0007393842
-2.3552246e-19
0.0007393842
-5.7143613e-19
0.0007393842
-6.0093164e-19
0.0007393842
-5.5189663e-19
0.0007393842
1.206475e-18
0.0007393842
3.9384488e-19
0.0007393842
-9.1108203e-19
0.0007393842
1.0374743e-19
0.0007393842
4.5970854e-19
0.0007393842
-1.0945819e-19
0.0007393842
-6.9246497e-19
0.0007393842
-7.5792381e-19
0.0007393842
1.0946738e-19
0.0007393842
1.601853e-18
0.0007393842
8.3647047e-19
0.0007393842
6.1651762e-19
0.0007393842
1.2049571e-18
0.0007393842
-4.6024893e-19
0.0007393842
-1.5437981e-18
0.0007393842
-5.1714555e-19
0.0007393842
9.3823999e-20
0.0007393842
-7.2816182e-19
0.0007393842
1.6659806e-18
0.0007393842
9.5962842e-19
0.0007393842
7.9738597e-19
0.0007393842
1.3072338e-18
0.0007393842
-1.324182e-18
0.0007393842
-1.3283639e-18
0.0007393842
1.9533516e-19
0.0007393842
2.3004869e-19
0.0007393842
2.8729544e-19
0.0007393842
3.0235471e-19
0.0007393842
-6.0375043e-19
0.0007393842
6.683532e-19
0.0007393842
-3.4909089e-19
0.0007393842
-2.0721031e-19
0.0007393842
-7.5079752e-19
0.0007393842
-3.9358247e-20
0.0007393842
1.6766329e-18
0.0007393842
1.2345671e-18
0.0007393842
-6.2411861e-19
0.0007393842
-1.4941426e-18
0.0007393842
-4.6289226e-19
0.0007393842
-1.1789933e-18
0.0007393842
8.9483703e-20
0.0007393842
3.7070018e-19
0.0007393842
2.9265544e-19
0.0007393842
1.5399195e-18
0.0007393842
1.6503968e-18
0.0007393842
-2.3995635e-19
0.0007393842
-5.450848e-19
0.0007393842
-7.6147901e-19
0.0007393842
-4.1632535e-19
0.0007393842
6.0294161e-19
0.0007393842
-2.1315384e-19
0.0007393842
1.1058182e-18
0.0007393842
1.3422404e-18
0.0007393842
5.5274018e-19
0.0007393842
-2.8590067e-19
0.0007393842
4.1764655e-19
0.0007393842
-4.0097928e-19
0.0007393842
-1.0517148e-18
0.0007393842
3.549174e-19
0.0007393842
1.5142524e-18
0.0007393842
8.8805761e-20
0.0007393842
-8.2036246e-19
0.0007393842
5.9784906e-19
0.0007393842
-3.9430391e-19
0.0007393842
-4.3820963e-19
0.0007393842
-2.3496618e-19
0.0007393842
6.2801281e-20
0.0007393842
3.2722884e-19
0.0007393842
1.3971699e-18
0.0007393842
-3.3018284e-19
0.0007393842
-1.4420823e-18
0.0007393842
6.0207203e-19
0.0007393842
1.3400643e-20
0.0007393842
-9.0520975e-19
0.0007393842
-7.9891871e-20
0.0007393842
-2.2024343e-19
0.0007393842
9.5594358e-19
0.0007393842
1.9366389e-18
0.0007393842
-6.7439031e-19
0.0007393842
-2.0157574e-19
0.0007393842
-1.7851068e-18
0.0007393842
-1.4611467e-18
0.0007393842
1.7500482e-18
0.0007393842
-1.4702293e-18
0.0007393842
-1.3061795e-19
0.0007393842
3.5231423e-18
0.0007393842
-1.4696197e-18
0.0007393842
-2.1294828e-18
0.0007393842
-3.0062569e-19
0.0007393842
-1.04192e-18
0.0007393842
7.2456588e-19
0.0007393842
-9.5238016e-19
0.0007393842
-2.4231764e-19
0.0007393842
1.9657918e-18
0.0007393842
1.1645827e-18
0.0007393842
-8.9606187e-19
0.0007393842
-1.6610286e-18
0.0007393842
-1.7889068e-18
0.0007393842
-4.0912463e-19
0.0007393842
3.388723e-19
0.0007393842
-2.2326283e-18
0.0007393842
8.8377578e-19
0.0007393842
-5.0759186e-20
0.0007393842
-2.5080055e-18
0.0007393842
8.6078148e-19
0.0007393842
-9.9532963e-20
0.0007393842
-2.6556992e-18
0.0007393842
-8.3784142e-19
0.0007393842
-1.2361976e-18
0.0007393842
-1.3879017e-18
0.0007393842
1.7430371e-18
0.0007393842
-1.9493389e-18
0.0007393842
-6.6593256e-18
0.0007393842
-6.9337301e-18
0.0007393842
-1.2937757e-17
-2.3839855e-17
0.0012189743
-2.2424735e-17
0.0012189743
-1.8127659e-17
0.0012189743
-1.2954705e-17
0.0012189743
-9.0753932e-18
0.0012189743
-6.1830756e-18
0.0012189743
-4.2207019e-18
0.0012189743
-2.8090519e-18
0.0012189743
-2.222145e-18
0.0012189743
-2.0517737e-18
0.0012189743
-1.6573218e-18
0.0012189743
-1.8628549e-18
0.0012189743
-1.4008445e-18
0.0012189743
-1.1945729e-18
0.0012189743
-1.1663326e-18
0.0012189743
-1.3037518e-18
0.0012189743
-1.5086306e-18
0.0012189743
-1.7100185e-18
0.0012189743
-1.8345264e-18
0.0012189743
-1.8619144e-18
0.0012189743
-1.4061809e-18
0.0012189743
-8.9533134e-19
0.0012189743
-6.0391647e-19
0.0012189743
-2.8104744e-19
0.0012189743
-1.8621459e-19
0.0012189743
3.7306689e-19
0.0012189743
2.1301823e-19
0.0012189743
-1.9312177e-19
0.0012189743
4.8416357e-20
0.0012189743
-2.1213479e-19
0.0012189743
-1.7210367e-19
0.0012189743
-8.7843857e-21
0.0012189743
1.1888097e-19
0.0012189743
4.1414397e-19
0.0012189743
2.3672745e-19
0.0012189743
1.5505526e-19
0.0012189743
1.3337535e-19
0.0012189743
-4.2249738e-19
0.0012189743
-2.2453284e-19
0.0012189743
1.9868204e-19
0.0012189743
1.9171167e-19
0.0012189743
8.6347097e-20
0.0012189743
-2.1377447e-19
0.0012189743
-3.5449808e-19
0.0012189743
-4.4727331e-19
0.0012189743
-2.3324802e-20
0.0012189743
3.0587844e-19
0.0012189743
1.6084918e-19
0.0012189743
-5.9625501e-19
0.0012189743
-6.9336297e-19
0.0012189743
-2.3026465e-19
0.0012189743
-5.311477e-19
0.0012189743
-1.2203291e-18
0.0012189743
-1.7532552e-18
0.0012189743
-8.7235677e-19
0.0012189743
-4.3026507e-19
0.0012189743
-5.2816659e-19
0.0012189743
2.0228282e-19
0.0012189743
1.577456e-19
0.0012189743
1.8371213e-20
0.0012189743
4.4137209e-19
0.0012189743
3.2574489e-19
0.0012189743
7.6439693e-19
0.0012189743
5.4327565e-19
0.0012189743
7.67112e-19
0.0012189743
1.0163528e-18
0.0012189743
6.9577952e-19
0.0012189743
4.3123809e-20
0.0012189743
-1.2429157e-19
0.0012189743
3.1867104e-19
0.0012189743
3.0119901e-19
0.0012189743
2.9638264e-19
0.0012189743
3.9385276e-19
0.0012189743
8.8142633e-19
0.0012189743
2.5036478e-19
0.0012189743
1.5201068e-19
0.0012189743
1.935043e-18
0.0012189743
1.6344876e-18
0.0012189743
5.5613893e-19
0.0012189743
4.8911149e-19
0.0012189743
9.5511562e-19
0.0012189743
1.2646047e-18
0.0012189743
9.8705213e-19
0.0012189743
1.1168309e-18
0.0012189743
8.7375286e-19
0.0012189743
5.1933676e-19
0.0012189743
8.7413812e-19
0.0012189743
4.9409179e-19
0.0012189743
5.4369086e-19
0.0012189743
5.1235137e-19
0.0012189743
1.0404533e-18
0.0012189743
1.2911369e-18
0.0012189743
8.2323738e-19
0.0012189743
8.3749943e-19
0.0012189743
9.4476114e-19
0.0012189743
1.269157e-19
0.0012189743
-7.0454198e-19
0.0012189743
-1.2007326e-19
0.0012189743
5.9703681e-19
0.0012189743
-1.1529996e-18
0.0012189743
-1.8487601e-18
0.0012189743
6.2280562e-20
0.0012189743
2.2718289e-19
0.0012189743
-5.7768578e-19
0.0012189743
-1.1859626e-18
0.0012189743
-1.2852316e-18
0.0012189743
-1.3072264e-18
0.0012189743
-1.4970231e-18
0.0012189743
-9.9927507e-19
0.0012189743
6.0221918e-19
0.0012189743
7.9603762e-19
0.0012189743
-2.0744522e-19
0.0012189743
-6.1744431e-19
0.0012189743
-2.3636316e-19
0.0012189743
1.0139831e-18
0.0012189743
5.7374364e-19
0.0012189743
-1.3017635e-18
0.0012189743
-4.7082201e-19
0.0012189743
8.39109e-19
0.0012189743
8.474347e-19
0.0012189743
1.4678231e-19
0.0012189743
-1.9773531e-19
0.0012189743
4.7190007e-19
0.0012189743
9.6068723e-19
0.0012189743
4.3905832e-19
0.0012189743
1.0316564e-19
0.0012189743
5.2835572e-19
0.0012189743
-2.4951898e-19
0.0012189743
-5.7620326e-19
0.0012189743
1.2905029e-20
0.0012189743
-5.895342e-19
0.0012189743
5.3946832e-20
0.0012189743
7.4146491e-20
0.0012189743
4.6470566e-19
0.0012189743
-2.8452969e-19
0.0012189743
-5.0335459e-19
0.0012189743
2.4897816e-19
0.0012189743
-4.5104881e-19
0.0012189743
-2.0286588e-19
0.0012189743
1.0924107e-18
0.0012189743
5.7885938e-19
0.0012189743
-1.2068338e-18
0.0012189743
-1.6706259e-18
0.0012189743
8.5659224e-19
0.0012189743
1.3175883e-18
0.0012189743
-1.1847372e-18
0.0012189743
-6.2623219e-19
0.0012189743
1.6814601e-18
0.0012189743
-4.9452974e-19
0.0012189743
-1.9273943e-18
0.0012189743
-4.9856925e-19
0.0012189743
-8.4574309e-19
0.0012189743
2.3674989e-19
0.0012189743
9.1140755e-19
0.0012189743
-6.588002e-19
0.0012189743
-3.9380151e-19
0.0012189743
-4.073532e-20
0.0012189743
-8.3672123e-19
0.0012189743
-8.7812018e-19
0.0012189743
-6.5008736e-19
0.0012189743
1.0959471e-18
0.0012189743
3.2060646e-19
0.0012189743
-1.0281942e-18
0.0012189743
-6.4398205e-19
0.0012189743
1.18348e-19
0.0012189743
4.2093116e-19
0.0012189743
5.5590951e-19
0.0012189743
1.8006207e-19
0.0012189743
-7.48967e-19
0.0012189743
9.6497023e-19
0.0012189743
1.2097741e-18
0.0012189743
-4.8824352e-19
0.0012189743
-6.8575929e-19
0.0012189743
-3.5401224e-20
0.0012189743
-8.0612702e-19
0.0012189743
-1.3228652e-18
0.0012189743
-1.573783e-19
0.0012189743
6.8017461e-19
0.0012189743
-8.4516329e-19
0.0012189743
-6.0352813e-19
0.0012189743
1.2483073e-18
0.0012189743
-1.2781004e-19
0.0012189743
-9.9903911e-19
0.0012189743
-5.1604509e-19
0.0012189743
-5.9952054e-19
0.0012189743
9.4109201e-19
0.0012189743
4.4261167e-19
0.0012189743
-8.2347799e-19
0.0012189743
-7.028504e-20
0.0012189743
6.5900446e-19
0.0012189743
-4.1364662e-19
0.0012189743
-9.6823701e-19
0.0012189743
-8.8780351e-19
0.0012189743
5.8702273e-19
0.0012189743
2.6068544e-18
0.0012189743
1.3186074e-18
0.0012189743
1.2460013e-18
0.0012189743
1.794206e-18
0.0012189743
-8.5780754e-19
0.0012189743
-1.9401569e-18
0.0012189743
-3.3477793e-19
0.0012189743
1.3590989e-19
0.0012189743
-5.6263265e-19
0.0012189743
1.9914981e-18
0.0012189743
1.2092018e-18
0.0012189743
1.6802946e-18
0.0012189743
1.9236503e-18
0.0012189743
-1.8085968e-18
0.0012189743
-1.7461665e-18
0.0012189743
8.7939353e-20
0.0012189743
5.0817614e-19
0.0012189743
3.0743854e-19
0.0012189743
6.3816843e-19
0.0012189743
-4.0318931e-19
0.0012189743
5.8856032e-19
0.0012189743
-7.2700352e-19
0.0012189743
-3.3063852e-19
0.0012189743
-1.1581602e-18
0.0012189743
-3.0345962e-19
0.0012189743
2.4100716e-18
0.0012189743
1.0955205e-18
0.0012189743
-1.119266e-18
0.0012189743
-1.5939094e-18
0.0012189743
-5.2610039e-19
0.0012189743
-1.0822018e-18
0.0012189743
-2.1380526e-19
0.0012189743
-2.9623965e-19
0.0012189743
8.7744835e-19
0.0012189743
2.3265331e-18
0.0012189743
2.1442805e-18
0.0012189743
-2.266701e-19
0.0012189743
-1.9951603e-19
0.0012189743
-5.3663944e-19
0.0012189743
-9.0835058e-19
0.0012189743
7.7202204e-19
0.0012189743
4.5795741e-20
0.0012189743
1.4163772e-18
0.0012189743
1.874184e-18
0.0012189743
4.1379567e-19
0.0012189743
5.0589299e-19
0.0012189743
3.3303781e-19
0.0012189743
-1.5447259e-19
0.0012189743
-4.5133967e-19
0.0012189743
-1.9549207e-21
0.0012189743
1.7962953e-18
0.0012189743
1.3054852e-20
0.0012189743
-9.8799884e-19
0.0012189743
1.3014481e-19
0.0012189743
-2.926457e-19
0.0012189743
9.303034e-20
0.0012189743
4.8451047e-19
0.0012189743
-3.1040968e-20
0.0012189743
2.9082018e-19
0.0012189743
1.2941598e-18
0.0012189743
-8.758068e-20
0.0012189743
-1.5429003e-18
0.0012189743
-2.3524868e-19
0.0012189743
2.82123e-19
0.0012189743
-5.3095931e-19
0.0012189743
-3.9172939e-19
0.0012189743
-9.2536792e-19
0.0012189743
1.7587536e-18
0.0012189743
2.697319e-18
0.0012189743
-2.9772413e-19
0.0012189743
-4.3939751e-19
0.0012189743
-2.9584308e-18
0.0012189743
-2.3681425e-18
0.0012189743
2.2979043e-18
0.0012189743
-8.0099823e-19
0.0012189743
-3.3959294e-19
0.0012189743
3.4911331e-18
0.0012189743
-1.3730551e-18
0.0012189743
-2.9956491e-18
0.0012189743
-6.9507614e-19
0.0012189743
-1.5194389e-18
0.0012189743
-5.1194205e-19
0.0012189743
3.9189356e-19
0.0012189743
2.9788465e-19
0.0012189743
1.4893969e-18
0.0012189743
1.031811e-18
0.0012189743
-4.7054264e-19
0.0012189743
-2.3335628e-18
0.0012189743
-3.5043105e-18
0.0012189743
-5.0209661e-19
0.0012189743
5.5651959e-19
0.0012189743
-3.4632752e-18
0.0012189743
4.8834299e-19
0.0012189743
4.4853444e-19
0.0012189743
-3.7487016e-18
0.0012189743
5.3604394e-19
0.0012189743
-9.5805324e-19
0.0012189743
-4.3203004e-18
0.0012189743
-1.407084e-18
0.0012189743
-7.0567014e-19
0.0012189743
-1.8935602e-18
0.0012189743
1.4056535e-18
0.0012189743
-3.3406421e-18
0.0012189743
-8.199209e-18
0.0012189743
-7.9536124e-18
0.0012189743
-1.3067155e-17
-1.8815073e-17
0.0016885655
-1.6538915e-17
0.0016885655
-1.5265254e-17
0.0016885655
-1.229608e-17
0.0016885655
-9.1940226e-18
0.0016885655
-6.6002838e-18
0.0016885655
-4.7682497e-18
0.0016885655
-3.4573549e-18
0.0016885655
-2.9600746e-18
0.0016885655
-2.8282696e-18
0.0016885655
-2.5603035e-18
0.0016885655
-2.2381764e-18
0.0016885655
-2.3875029e-18
0.0016885655
-2.1728727e-18
0.0016885655
-2.0171511e-18
0.0016885655
-2.6069011e-18
0.0016885655
-3.0574719e-18
0.0016885655
-3.153168e-18
0.0016885655
-3.2477084e-18
0.0016885655
-2.4141805e-18
0.0016885655
-1.9001435e-18
0.0016885655
-1.6435986e-18
0.0016885655
-1.0803912e-18
0.0016885655
-5.4591937e-19
0.0016885655
-3.1183649e-19
0.0016885655
1.0966997e-19
0.0016885655
-8.789118e-20
0.0016885655
-3.1075297e-19
0.0016885655
1.5107372e-19
0.0016885655
-5.4553619e-19
0.0016885655
-6.6910243e-19
0.0016885655
-1.9057044e-19
0.0016885655
4.834734e-19
0.0016885655
4.7633475e-19
0.0016885655
3.2227618e-19
0.0016885655
-7.3960961e-21
0.0016885655
2.760494e-19
0.0016885655
-1.372145e-19
0.0016885655
1.6551982e-19
0.0016885655
1.5745451e-19
0.0016885655
-5.5460397e-19
0.0016885655
-3.4679947e-19
0.0016885655
-2.5565759e-19
0.0016885655
-5.5161021e-19
0.0016885655
-5.2906165e-19
0.0016885655
-3.3800137e-20
0.0016885655
2.3107168e-20
0.0016885655
-2.9425494e-19
0.0016885655
-6.5016698e-19
0.0016885655
-5.1770772e-19
0.0016885655
-2.3409721e-19
0.0016885655
-9.278592e-19
0.0016885655
-2.1882156e-18
0.0016885655
-2.3322792e-18
0.0016885655
-9.4536329e-19
0.0016885655
-7.7890178e-19
0.0016885655
-1.253164e-18
0.0016885655
-3.0034529e-19
0.0016885655
1.6156531e-19
0.0016885655
6.4651425e-19
0.0016885655
4.9553407e-19
0.0016885655
1.0607662e-18
0.0016885655
1.2807898e-18
0.0016885655
1.2830413e-18
0.0016885655
1.3490828e-18
0.0016885655
1.1628452e-18
0.0016885655
8.5016402e-19
0.0016885655
-2.8284191e-20
0.0016885655
-1.4171314e-19
0.0016885655
7.0779907e-19
0.0016885655
5.0194414e-19
0.0016885655
3.7545389e-19
0.0016885655
1.0953005e-18
0.0016885655
1.971671e-18
0.0016885655
1.0009738e-18
0.0016885655
3.5476842e-19
0.0016885655
1.9701921e-18
0.0016885655
2.2630982e-18
0.0016885655
1.3020696e-18
0.0016885655
9.3527549e-19
0.0016885655
2.0619577e-18
0.0016885655
2.2349838e-18
0.0016885655
1.2951688e-18
0.0016885655
1.4198425e-18
0.0016885655
8.3195137e-19
0.0016885655
1.1697772e-18
0.0016885655
1.8036809e-18
0.0016885655
1.2800305e-18
0.0016885655
9.6321821e-19
0.0016885655
1.2420333e-18
0.0016885655
1.9909805e-18
0.0016885655
2.5334113e-18
0.0016885655
1.4451579e-18
0.0016885655
1.3542874e-18
0.0016885655
8.256696e-19
0.0016885655
1.0805568e-19
0.0016885655
-1.6702092e-19
0.0016885655
2.6427957e-19
0.0016885655
2.2324208e-19
0.0016885655
-1.2422712e-18
0.0016885655
-1.8712084e-18
0.0016885655
-3.281328e-19
0.0016885655
1.7366073e-19
0.0016885655
-7.021632e-19
0.0016885655
-1.6120186e-18
0.0016885655
-1.494813e-18
0.0016885655
-1.63285e-18
0.0016885655
-1.9633264e-18
0.0016885655
-1.5431247e-18
0.0016885655
9.6309156e-19
0.0016885655
8.0467327e-19
0.0016885655
-3.0972591e-19
0.0016885655
-3.1999946e-19
0.0016885655
-1.0837651e-19
0.0016885655
8.913651e-19
0.0016885655
3.2881523e-19
0.0016885655
-7.4306949e-19
0.0016885655
-6.0577879e-19
0.0016885655
1.0651511e-18
0.0016885655
1.0173766e-18
0.0016885655
2.7036914e-19
0.0016885655
-4.2239464e-19
0.0016885655
4.0917217e-19
0.0016885655
1.2120368e-18
0.0016885655
2.7873711e-20
0.0016885655
1.6567594e-19
0.0016885655
5.1360513e-19
0.0016885655
-5.0704033e-20
0.0016885655
-5.3907239e-19
0.0016885655
-2.5956756e-19
0.0016885655
-2.2204734e-19
0.0016885655
8.5698989e-20
0.0016885655
-5.846042e-20
0.0016885655
5.8695485e-19
0.0016885655
-2.1445664e-19
0.0016885655
-7.5748824e-19
0.0016885655
4.8418872e-19
0.0016885655
-3.1293506e-19
0.0016885655
5.181753e-20
0.0016885655
1.503135e-18
0.0016885655
1.0527186e-19
0.0016885655
-1.0430345e-18
0.0016885655
-1.1359913e-18
0.0016885655
9.0805449e-19
0.0016885655
1.3194964e-18
0.0016885655
-1.6260121e-18
0.0016885655
-4.2101928e-19
0.0016885655
1.6243313e-18
0.0016885655
-1.1402306e-18
0.0016885655
-1.7851601e-18
0.0016885655