/*--------------------------------*- C++ -*----------------------------------*\
| =========                 |                                                 |
| \\      /  F ield         | OpenFOAM: The Open Source CFD Toolbox           |
|  \\    /   O peration     | Version:  2406                                  |
|   \\  /    A nd           | Website:  www.openfoam.com                      |
|    \\/     M anipulation  |                                                 |
\*---------------------------------------------------------------------------*/
FoamFile
{
    version     2.0;
    format      ascii;
    arch        "LSB;label=32;scalar=64";
    class       volVectorField;
    location    "14";
    object      U;
}
// * * * * * * * * * * * * * * * * * * * * * * * * * * * * * * * * * * * * * //

dimensions      [0 1 -1 0 0 0 0];

internalField   nonuniform List<vector> 
30000
(
(0.24979469 -2.9948819e-14 0)
(0.24979469 -1.3596011e-14 0)
(0.24979469 -2.9515616e-15 0)
(0.24979469 -8.5668361e-16 0)
(0.24979469 -4.3479934e-16 0)
(0.24979469 -1.9868493e-16 0)
(0.24979469 -8.3448813e-17 0)
(0.24979469 -8.5234103e-17 0)
(0.24979469 -4.948394e-17 0)
(0.24979469 1.2394667e-17 0)
(0.24979469 1.3943106e-18 0)
(0.24979469 -2.2968659e-17 0)
(0.24979469 -2.4206055e-17 0)
(0.24979469 4.769709e-17 0)
(0.24979469 5.7602627e-17 0)
(0.24979469 -5.5737996e-17 0)
(0.24979469 -4.1725899e-17 0)
(0.24979469 -6.9046773e-17 0)
(0.24979469 -5.6467116e-17 0)
(0.24979469 1.3099691e-17 0)
(0.24979469 3.4790905e-20 0)
(0.24979469 8.2581867e-18 0)
(0.24979469 3.6829146e-17 0)
(0.24979469 4.2846244e-17 0)
(0.24979469 -1.3825309e-17 0)
(0.24979469 5.0038561e-17 0)
(0.24979469 3.3054613e-17 0)
(0.24979469 6.7751816e-17 0)
(0.24979469 -6.7193152e-17 0)
(0.24979469 9.5982491e-18 0)
(0.24979469 8.3666316e-17 0)
(0.24979469 -1.2263939e-16 0)
(0.24979469 1.4229673e-17 0)
(0.24979469 1.1858136e-16 0)
(0.24979469 -5.3373489e-17 0)
(0.24979469 2.3103928e-17 0)
(0.24979469 8.9556831e-18 0)
(0.24979469 1.4944773e-17 0)
(0.24979469 2.5178994e-18 0)
(0.24979469 -1.1936403e-16 0)
(0.24979469 7.8208538e-17 0)
(0.24979469 -4.7294363e-17 0)
(0.24979469 1.737034e-16 0)
(0.24979469 1.1426566e-16 0)
(0.24979469 -2.467018e-16 0)
(0.24979469 6.2374177e-18 0)
(0.24979469 1.6126254e-16 0)
(0.24979469 -7.3349263e-17 0)
(0.24979469 -3.2152691e-17 0)
(0.24979469 9.6472554e-17 0)
(0.24979469 3.9453007e-18 0)
(0.24979469 9.7104958e-17 0)
(0.24979469 -2.4501973e-16 0)
(0.24979469 -1.8406698e-16 0)
(0.24979469 1.3273835e-16 0)
(0.24979469 3.7076449e-17 0)
(0.24979469 1.8098837e-16 0)
(0.24979469 -1.0173397e-16 0)
(0.24979469 -1.756681e-16 0)
(0.24979469 1.1153431e-16 0)
(0.24979469 1.3125122e-16 0)
(0.24979469 -9.2498812e-17 0)
(0.24979469 2.8579556e-17 0)
(0.24979469 1.9702199e-16 0)
(0.24979469 -2.5498903e-16 0)
(0.24979469 -1.6825068e-17 0)
(0.24979469 1.0878294e-16 0)
(0.24979469 1.1066436e-16 0)
(0.24979469 3.5742394e-17 0)
(0.24979469 -1.8188967e-16 0)
(0.24979469 -1.7180772e-16 0)
(0.24979469 -5.9600776e-18 0)
(0.24979469 3.315422e-16 0)
(0.24979469 -1.1866719e-16 0)
(0.24979469 -2.0017495e-16 0)
(0.24979469 3.5533141e-16 0)
(0.24979469 7.2382079e-17 0)
(0.24979469 -3.1169664e-16 0)
(0.24979469 4.624339e-18 0)
(0.24979469 1.714353e-16 0)
(0.24979469 4.6914359e-17 0)
(0.24979469 -8.0589229e-18 0)
(0.24979469 2.3432236e-17 0)
(0.24979469 1.314449e-16 0)
(0.24979469 -2.6133665e-16 0)
(0.24979469 1.9094011e-16 0)
(0.24979469 2.8469278e-16 0)
(0.24979469 -2.0665365e-16 0)
(0.24979469 -1.1094174e-17 0)
(0.24979469 -1.3629908e-16 0)
(0.24979469 5.2423411e-17 0)
(0.24979469 3.4878684e-16 0)
(0.24979469 -9.3142946e-17 0)
(0.24979469 -5.4473179e-17 0)
(0.24979469 6.5805996e-17 0)
(0.24979469 -4.7305528e-16 0)
(0.24979469 6.9567218e-17 0)
(0.24979469 3.0155956e-16 0)
(0.24979469 -1.5385089e-16 0)
(0.24979469 -5.8773373e-17 0)
(0.24979469 7.6005709e-17 0)
(0.24979469 2.9918472e-16 0)
(0.24979469 -3.5683889e-16 0)
(0.24979469 -3.2047475e-16 0)
(0.24979469 4.94118e-16 0)
(0.24979469 -2.8539305e-16 0)
(0.24979469 -3.239745e-16 0)
(0.24979469 2.0759692e-16 0)
(0.24979469 6.0330958e-17 0)
(0.24979469 3.3763822e-16 0)
(0.24979469 -2.81555e-16 0)
(0.24979469 -3.7349926e-16 0)
(0.24979469 2.108322e-16 0)
(0.24979469 1.7825226e-16 0)
(0.24979469 3.1112948e-16 0)
(0.24979469 -1.3023641e-16 0)
(0.24979469 -5.9832224e-16 0)
(0.24979469 3.4731447e-17 0)
(0.24979469 3.5226639e-16 0)
(0.24979469 -2.4780577e-17 0)
(0.24979469 -2.1597988e-17 0)
(0.24979469 3.6921136e-17 0)
(0.24979469 3.7749764e-16 0)
(0.24979469 2.060681e-18 0)
(0.24979469 -6.1712217e-16 0)
(0.24979469 2.8943622e-16 0)
(0.24979469 2.8504223e-16 0)
(0.24979469 -2.4810048e-16 0)
(0.24979469 -5.7662987e-19 0)
(0.24979469 -3.4532787e-17 0)
(0.24979469 -2.942202e-16 0)
(0.24979469 -3.7227778e-17 0)
(0.24979469 3.3799476e-16 0)
(0.24979469 -2.8562648e-17 0)
(0.24979469 -7.3046612e-17 0)
(0.24979469 8.7413394e-17 0)
(0.24979469 2.4209409e-16 0)
(0.24979469 -2.5743088e-16 0)
(0.24979469 5.9531854e-17 0)
(0.24979469 3.1181715e-16 0)
(0.24979469 -3.734704e-16 0)
(0.24979469 -3.5853149e-16 0)
(0.24979469 5.654887e-17 0)
(0.24979469 4.0803459e-16 0)
(0.24979469 -3.1442662e-17 0)
(0.24979469 -4.0987362e-17 0)
(0.24979469 3.6047455e-16 0)
(0.24979469 -3.3909121e-16 0)
(0.24979469 -4.6489797e-16 0)
(0.24979469 3.1492082e-16 0)
(0.24979469 -2.4148271e-17 0)
(0.24979469 -2.1335131e-18 0)
(0.24979469 4.4796717e-16 0)
(0.24979469 -3.17185e-16 0)
(0.24979469 -7.3359526e-17 0)
(0.24979469 2.8457308e-16 0)
(0.24979469 -6.0026636e-16 0)
(0.24979469 -3.352012e-16 0)
(0.24979469 5.7613225e-16 0)
(0.24979469 6.0438467e-16 0)
(0.24979469 -4.8813321e-16 0)
(0.24979469 -1.294106e-16 0)
(0.24979469 -1.9435062e-17 0)
(0.24979469 -9.8281247e-18 0)
(0.24979469 1.3886665e-17 0)
(0.24979469 5.4626138e-17 0)
(0.24979469 8.4425911e-17 0)
(0.24979469 -5.7170216e-16 0)
(0.24979469 8.1668307e-16 0)
(0.24979469 1.2222037e-16 0)
(0.24979469 -8.7165885e-16 0)
(0.24979469 7.7711896e-16 0)
(0.24979469 3.3364081e-16 0)
(0.24979469 -8.6510499e-16 0)
(0.24979469 1.2624611e-16 0)
(0.24979469 9.0432113e-18 0)
(0.24979469 6.4171434e-17 0)
(0.24979469 -1.4773324e-17 0)
(0.24979469 -3.8320651e-17 0)
(0.24979469 2.9934149e-16 0)
(0.24979469 -4.9569548e-16 0)
(0.24979469 -9.4680099e-17 0)
(0.24979469 1.6685266e-16 0)
(0.24979469 -2.4823359e-16 0)
(0.24979469 6.596043e-16 0)
(0.24979469 3.0401903e-17 0)
(0.24979469 -6.1182809e-16 0)
(0.24979469 5.4469424e-16 0)
(0.24979469 9.3168267e-17 0)
(0.24979469 -2.8461375e-16 0)
(0.24979469 -1.0950148e-16 0)
(0.24979469 -9.594873e-17 0)
(0.24979469 -5.2121021e-16 0)
(0.24979469 4.116937e-16 0)
(0.24979469 5.832514e-16 0)
(0.24979469 -2.1873606e-16 0)
(0.24979469 1.2488987e-16 0)
(0.24979469 4.6422801e-16 0)
(0.24979469 -7.0840953e-16 0)
(0.24979469 -6.0076257e-16 0)
(0.24979469 4.9682595e-16 0)
(0.24979469 -7.6655816e-17 0)
(0.24979469 1.4866637e-16 0)
(0.24979469 1.5321244e-16 0)
(0.24979469 5.7918925e-16 0)
(0.24979469 -4.1585102e-16 0)
(0.24979469 -6.9289892e-16 0)
(0.24979469 3.3139786e-16 0)
(0.24979469 6.6887233e-17 0)
(0.24979469 6.2208884e-17 0)
(0.24979469 5.5843042e-16 0)
(0.24979469 -4.8705396e-16 0)
(0.24979469 -5.8255602e-16 0)
(0.24979469 1.055173e-15 0)
(0.24979469 -5.5461671e-16 0)
(0.24979469 -5.9783079e-16 0)
(0.24979469 3.764841e-16 0)
(0.24979469 1.9994597e-17 0)
(0.24979469 1.72282e-16 0)
(0.24979469 6.5587234e-16 0)
(0.24979469 -2.3095262e-17 0)
(0.24979469 -7.0181136e-16 0)
(0.24979469 -5.8748983e-16 0)
(0.24979469 -9.8319879e-17 0)
(0.24979469 4.7008982e-16 0)
(0.24979469 -3.9682884e-16 0)
(0.24979469 5.4854638e-16 0)
(0.24979469 6.4274363e-16 0)
(0.24979469 -2.8978391e-16 0)
(0.24979469 4.6770298e-16 0)
(0.24979469 -9.180347e-17 0)
(0.24979469 -1.1236715e-15 0)
(0.24979469 3.9097309e-16 0)
(0.24979469 5.4801311e-17 0)
(0.24979469 -5.6491187e-16 0)
(0.24979469 5.6648345e-16 0)
(0.24979469 2.1143851e-16 0)
(0.24979469 5.4302641e-16 0)
(0.24979469 -6.0838565e-16 0)
(0.24979469 -1.5096525e-17 0)
(0.24979469 -8.6034998e-17 0)
(0.24979469 -6.0164987e-16 0)
(0.24979469 5.9148313e-16 0)
(0.24979469 7.2830171e-16 0)
(0.24979469 -5.1031163e-16 0)
(0.24979469 -8.6017379e-17 0)
(0.24979469 5.6238433e-16 0)
(0.24979469 -5.5558124e-16 0)
(0.24979469 -9.2827313e-17 0)
(0.24979469 -5.559505e-16 0)
(0.24979469 -3.6196668e-17 0)
(0.24979469 1.1268977e-16 0)
(0.24979469 1.2548411e-15 0)
(0.24979469 -2.0992334e-17 0)
(0.24979469 -6.5779878e-16 0)
(0.24979469 5.4627021e-16 0)
(0.24979469 -5.0103501e-16 0)
(0.24979469 -6.2548902e-16 0)
(0.24979469 5.1922954e-16 0)
(0.24979469 -2.6544449e-17 0)
(0.24979469 1.690121e-16 0)
(0.24979469 6.5816419e-16 0)
(0.24979469 -1.1414821e-15 0)
(0.24979469 4.3255577e-16 0)
(0.24979469 -7.1102223e-17 0)
(0.24979469 -1.2436657e-16 0)
(0.24979469 1.9884448e-16 0)
(0.24979469 -6.8295705e-16 0)
(0.24979469 5.7594232e-16 0)
(0.24979469 1.4842395e-15 0)
(0.24979469 -1.1962598e-15 0)
(0.24979469 -8.3544087e-16 0)
(0.24979469 4.577313e-16 0)
(0.24979469 -4.7730022e-16 0)
(0.24979469 1.0584331e-15 0)
(0.24979469 -1.1705132e-15 0)
(0.24979469 -6.5991068e-17 0)
(0.24979469 1.2779445e-15 0)
(0.24979469 2.0859732e-16 0)
(0.24979469 -5.8748704e-16 0)
(0.24979469 -1.4497911e-16 0)
(0.24979469 -7.913524e-17 0)
(0.24979469 -1.6399249e-17 0)
(0.24979469 -2.2926085e-17 0)
(0.24979469 -6.6406419e-16 0)
(0.24979469 1.1253769e-15 0)
(0.24979469 -4.9484175e-16 0)
(0.24979469 -7.8072848e-16 0)
(0.24979469 6.6830488e-16 0)
(0.24979469 6.3818212e-16 0)
(0.24979469 -7.6427949e-16 0)
(0.24979469 -6.1259288e-16 0)
(0.24979469 4.3787891e-16 0)
(0.24979469 -1.431246e-17 0)
(0.24979469 8.9010012e-16 0)
(0.24979469 2.8680709e-16 0)
(0.24979469 -2.3024535e-15 0)
(0.24979469 -9.2543123e-16 0)
(0.24979469 -2.4686419e-15 0)
(0.24979469 -1.3979277e-14 0)
(0.73938428 -4.1482581e-14 0)
(0.73938428 -2.2517128e-14 0)
(0.73938428 -9.6890961e-15 0)
(0.73938428 -4.9024947e-15 0)
(0.73938428 -2.6851224e-15 0)
(0.73938428 -1.4867731e-15 0)
(0.73938428 -8.9870347e-16 0)
(0.73938428 -6.8746741e-16 0)
(0.73938428 -4.2163211e-16 0)
(0.73938428 -4.1824706e-16 0)
(0.73938428 -3.4000213e-16 0)
(0.73938428 -1.617856e-16 0)
(0.73938428 -1.0421883e-16 0)
(0.73938428 -5.6417108e-17 0)
(0.73938428 -2.4395706e-16 0)
(0.73938428 -3.4225227e-16 0)
(0.73938428 -5.1435585e-16 0)
(0.73938428 -5.8439867e-16 0)
(0.73938428 -5.0821419e-16 0)
(0.73938428 -1.8472235e-16 0)
(0.73938428 -2.2433375e-16 0)
(0.73938428 -1.750415e-16 0)
(0.73938428 2.1192165e-16 0)
(0.73938428 1.2484875e-16 0)
(0.73938428 1.06862e-16 0)
(0.73938428 2.3931964e-16 0)
(0.73938428 1.4633471e-16 0)
(0.73938428 -6.6146826e-17 0)
(0.73938428 -2.4732576e-16 0)
(0.73938428 -7.2812526e-19 0)
(0.73938428 1.2477368e-16 0)
(0.73938428 -2.0492431e-17 0)
(0.73938428 1.014019e-16 0)
(0.73938428 2.6019864e-16 0)
(0.73938428 -1.0044802e-16 0)
(0.73938428 -1.2058219e-17 0)
(0.73938428 1.5456365e-17 0)
(0.73938428 -6.8351174e-17 0)
(0.73938428 -1.7910218e-17 0)
(0.73938428 -1.1646783e-16 0)
(0.73938428 3.0233491e-16 0)
(0.73938428 -1.1943886e-16 0)
(0.73938428 2.1831628e-17 0)
(0.73938428 2.2681522e-16 0)
(0.73938428 -2.4322008e-16 0)
(0.73938428 1.2053036e-16 0)
(0.73938428 2.2629899e-16 0)
(0.73938428 -2.5989401e-16 0)
(0.73938428 -3.9195105e-17 0)
(0.73938428 1.3978495e-16 0)
(0.73938428 -1.3616579e-16 0)
(0.73938428 -2.5690645e-16 0)
(0.73938428 -7.6680795e-16 0)
(0.73938428 -4.9114842e-16 0)
(0.73938428 1.9363626e-16 0)
(0.73938428 -2.1339687e-16 0)
(0.73938428 1.6908506e-16 0)
(0.73938428 3.9594562e-17 0)
(0.73938428 -1.8807917e-16 0)
(0.73938428 3.0751923e-16 0)
(0.73938428 3.1374877e-16 0)
(0.73938428 -1.4942804e-17 0)
(0.73938428 2.1318535e-16 0)
(0.73938428 5.8579489e-16 0)
(0.73938428 1.0328887e-17 0)
(0.73938428 3.5617399e-16 0)
(0.73938428 -2.0857607e-16 0)
(0.73938428 -2.7508616e-16 0)
(0.73938428 4.7033643e-16 0)
(0.73938428 -2.4258661e-16 0)
(0.73938428 -3.4723453e-16 0)
(0.73938428 8.1389615e-17 0)
(0.73938428 5.200463e-16 0)
(0.73938428 -1.1728444e-16 0)
(0.73938428 -1.8225341e-16 0)
(0.73938428 9.590916e-16 0)
(0.73938428 3.3805433e-16 0)
(0.73938428 -3.8127227e-16 0)
(0.73938428 2.9105643e-16 0)
(0.73938428 7.1995552e-16 0)
(0.73938428 2.9333833e-16 0)
(0.73938428 1.4616354e-16 0)
(0.73938428 5.9057981e-16 0)
(0.73938428 2.5004497e-17 0)
(0.73938428 -4.1708964e-16 0)
(0.73938428 8.2430868e-16 0)
(0.73938428 3.9683781e-16 0)
(0.73938428 -1.7912123e-16 0)
(0.73938428 2.9069571e-16 0)
(0.73938428 1.9703596e-16 0)
(0.73938428 1.6599384e-16 0)
(0.73938428 4.7017488e-16 0)
(0.73938428 4.0864063e-16 0)
(0.73938428 -1.7561527e-17 0)
(0.73938428 -2.930866e-17 0)
(0.73938428 -7.010677e-16 0)
(0.73938428 -1.4754147e-16 0)
(0.73938428 3.8675002e-16 0)
(0.73938428 -3.3541369e-16 0)
(0.73938428 -3.8754273e-16 0)
(0.73938428 2.7063913e-17 0)
(0.73938428 8.5851575e-17 0)
(0.73938428 -2.4362815e-16 0)
(0.73938428 -3.8762768e-17 0)
(0.73938428 -2.7615129e-16 0)
(0.73938428 -1.0134405e-15 0)
(0.73938428 -5.5114386e-16 0)
(0.73938428 -2.1826517e-18 0)
(0.73938428 1.4031655e-16 0)
(0.73938428 7.0022016e-16 0)
(0.73938428 -2.8273403e-17 0)
(0.73938428 -9.4254915e-16 0)
(0.73938428 -1.6399825e-16 0)
(0.73938428 9.9397725e-16 0)
(0.73938428 2.7399148e-16 0)
(0.73938428 -7.8673112e-16 0)
(0.73938428 -6.5262414e-16 0)
(0.73938428 2.7831784e-16 0)
(0.73938428 6.353126e-16 0)
(0.73938428 4.9726903e-17 0)
(0.73938428 -1.4993954e-16 0)
(0.73938428 1.9613098e-16 0)
(0.73938428 7.8023693e-16 0)
(0.73938428 2.6907452e-16 0)
(0.73938428 -6.4292183e-16 0)
(0.73938428 3.6328206e-16 0)
(0.73938428 2.0503279e-16 0)
(0.73938428 -3.9964496e-16 0)
(0.73938428 -4.9298182e-17 0)
(0.73938428 -9.2157244e-17 0)
(0.73938428 -3.5801396e-16 0)
(0.73938428 1.4026364e-17 0)
(0.73938428 1.0077961e-15 0)
(0.73938428 -7.1742855e-16 0)
(0.73938428 -8.8182935e-16 0)
(0.73938428 6.0550886e-16 0)
(0.73938428 3.5562008e-16 0)
(0.73938428 -2.1916393e-16 0)
(0.73938428 5.5102175e-16 0)
(0.73938428 1.9965677e-16 0)
(0.73938428 -1.0773978e-15 0)
(0.73938428 -5.777016e-16 0)
(0.73938428 2.8915582e-16 0)
(0.73938428 8.082294e-16 0)
(0.73938428 -2.0093267e-16 0)
(0.73938428 -1.3171138e-16 0)
(0.73938428 7.7990414e-16 0)
(0.73938428 -5.1396147e-16 0)
(0.73938428 -8.7853879e-16 0)
(0.73938428 6.9062772e-16 0)
(0.73938428 -8.4054409e-16 0)
(0.73938428 -6.1597644e-16 0)
(0.73938428 1.4844106e-15 0)
(0.73938428 -6.0831847e-16 0)
(0.73938428 -4.9300948e-16 0)
(0.73938428 5.3667451e-16 0)
(0.73938428 -8.0231193e-16 0)
(0.73938428 -4.9922714e-17 0)
(0.73938428 -7.1225443e-17 0)
(0.73938428 1.5690284e-16 0)
(0.73938428 1.9275185e-16 0)
(0.73938428 -5.8002677e-16 0)
(0.73938428 -4.3293128e-16 0)
(0.73938428 2.6778915e-16 0)
(0.73938428 2.0510444e-16 0)
(0.73938428 3.442141e-16 0)
(0.73938428 7.3085505e-16 0)
(0.73938428 -1.2493638e-15 0)
(0.73938428 5.4100276e-16 0)
(0.73938428 1.2127598e-15 0)
(0.73938428 -1.2012362e-15 0)
(0.73938428 4.154108e-16 0)
(0.73938428 8.1979106e-16 0)
(0.73938428 -1.4197594e-15 0)
(0.73938428 -5.3201311e-16 0)
(0.73938428 1.9796208e-16 0)
(0.73938428 3.9770147e-16 0)
(0.73938428 8.7958686e-17 0)
(0.73938428 -5.3832181e-16 0)
(0.73938428 2.5672437e-16 0)
(0.73938428 -7.500699e-17 0)
(0.73938428 -6.4757334e-16 0)
(0.73938428 -3.852727e-16 0)
(0.73938428 -1.8869339e-16 0)
(0.73938428 1.0959428e-15 0)
(0.73938428 2.7207789e-16 0)
(0.73938428 -6.385193e-16 0)
(0.73938428 1.9821002e-16 0)
(0.73938428 1.4209077e-17 0)
(0.73938428 1.6754438e-16 0)
(0.73938428 -6.9100063e-16 0)
(0.73938428 -7.0926885e-16 0)
(0.73938428 -9.8044284e-17 0)
(0.73938428 1.1522388e-15 0)
(0.73938428 1.1260799e-15 0)
(0.73938428 1.3003749e-16 0)
(0.73938428 4.4918703e-16 0)
(0.73938428 2.6691585e-16 0)
(0.73938428 -1.3360396e-15 0)
(0.73938428 -9.1485497e-16 0)
(0.73938428 3.9556497e-16 0)
(0.73938428 -7.6063028e-16 0)
(0.73938428 1.2929102e-15 0)
(0.73938428 1.2303107e-15 0)
(0.73938428 9.4119867e-17 0)
(0.73938428 4.901879e-16 0)
(0.73938428 -5.4776885e-16 0)
(0.73938428 -6.0570713e-16 0)
(0.73938428 4.7877805e-16 0)
(0.73938428 -4.2715427e-16 0)
(0.73938428 8.4532756e-17 0)
(0.73938428 5.9727398e-17 0)
(0.73938428 -7.4984198e-16 0)
(0.73938428 7.3591964e-16 0)
(0.73938428 -3.7814134e-17 0)
(0.73938428 -1.5219658e-16 0)
(0.73938428 -4.9038135e-16 0)
(0.73938428 -1.0637949e-16 0)
(0.73938428 8.0862181e-16 0)
(0.73938428 1.2240841e-15 0)
(0.73938428 -1.7416744e-16 0)
(0.73938428 -1.233434e-15 0)
(0.73938428 -5.1289018e-16 0)
(0.73938428 -1.1213063e-15 0)
(0.73938428 -1.7051256e-16 0)
(0.73938428 7.2942394e-16 0)
(0.73938428 3.9507079e-16 0)
(0.73938428 8.1462456e-16 0)
(0.73938428 1.3413131e-15 0)
(0.73938428 3.4826534e-17 0)
(0.73938428 -8.754747e-16 0)
(0.73938428 -1.0163613e-15 0)
(0.73938428 3.2259423e-16 0)
(0.73938428 1.9502814e-16 0)
(0.73938428 -6.0213704e-16 0)
(0.73938428 1.0823592e-15 0)
(0.73938428 7.6027069e-16 0)
(0.73938428 8.0343274e-16 0)
(0.73938428 -6.502518e-16 0)
(0.73938428 6.3478264e-17 0)
(0.73938428 -2.6136441e-16 0)
(0.73938428 -8.7024058e-16 0)
(0.73938428 7.6373379e-16 0)
(0.73938428 1.3347354e-15 0)
(0.73938428 -4.746925e-16 0)
(0.73938428 -3.0595722e-16 0)
(0.73938428 6.2988039e-16 0)
(0.73938428 -6.8172583e-16 0)
(0.73938428 -2.3514588e-16 0)
(0.73938428 -5.8495931e-16 0)
(0.73938428 1.6615428e-16 0)
(0.73938428 8.4497244e-16 0)
(0.73938428 1.1329641e-15 0)
(0.73938428 -6.7413712e-16 0)
(0.73938428 -6.7750267e-16 0)
(0.73938428 6.6124717e-16 0)
(0.73938428 -5.2921892e-16 0)
(0.73938428 -9.2612371e-16 0)
(0.73938428 4.1710284e-16 0)
(0.73938428 -3.5982903e-17 0)
(0.73938428 6.6044536e-16 0)
(0.73938428 1.3913805e-15 0)
(0.73938428 -1.2321886e-15 0)
(0.73938428 2.8535559e-16 0)
(0.73938428 -7.031891e-16 0)
(0.73938428 -4.900325e-16 0)
(0.73938428 1.5161231e-15 0)
(0.73938428 -2.1408211e-15 0)
(0.73938428 -5.2681109e-16 0)
(0.73938428 3.525344e-15 0)
(0.73938428 -1.3779468e-15 0)
(0.73938428 -1.641914e-15 0)
(0.73938428 2.6538962e-16 0)
(0.73938428 -8.8497882e-16 0)
(0.73938428 1.0210632e-15 0)
(0.73938428 -1.4059864e-15 0)
(0.73938428 -9.9587154e-17 0)
(0.73938428 1.9819628e-15 0)
(0.73938428 1.2233474e-15 0)
(0.73938428 -1.3717763e-15 0)
(0.73938428 -1.4303538e-15 0)
(0.73938428 -3.532509e-16 0)
(0.73938428 -1.0189585e-16 0)
(0.73938428 -8.4859499e-17 0)
(0.73938428 -1.41256e-15 0)
(0.73938428 1.2399273e-15 0)
(0.73938428 -5.5545554e-16 0)
(0.73938428 -1.6352471e-15 0)
(0.73938428 8.1067157e-16 0)
(0.73938428 6.3947386e-16 0)
(0.73938428 -1.5436653e-15 0)
(0.73938428 -1.7776425e-16 0)
(0.73938428 -1.0848256e-15 0)
(0.73938428 -1.4691383e-15 0)
(0.73938428 2.325406e-15 0)
(0.73938428 -2.67014e-16 0)
(0.73938428 -4.9315044e-15 0)
(0.73938428 -4.2819082e-15 0)
(0.73938428 -9.6698001e-15 0)
(0.73938428 -2.3483533e-14 0)
(1.2189745 -2.4470958e-14 0)
(1.2189745 -1.7135551e-14 0)
(1.2189745 -1.030691e-14 0)
(1.2189745 -6.6098224e-15 0)
(1.2189745 -4.1094401e-15 0)
(1.2189745 -2.6120229e-15 0)
(1.2189745 -1.6632876e-15 0)
(1.2189745 -1.2493579e-15 0)
(1.2189745 -9.9253079e-16 0)
(1.2189745 -9.3586447e-16 0)
(1.2189745 -9.8855771e-16 0)
(1.2189745 -6.1629893e-16 0)
(1.2189745 -5.6598128e-16 0)
(1.2189745 -4.7220078e-16 0)
(1.2189745 -7.8585345e-16 0)
(1.2189745 -8.0129385e-16 0)
(1.2189745 -1.1792149e-15 0)
(1.2189745 -1.3510606e-15 0)
(1.2189745 -1.1978054e-15 0)
(1.2189745 -8.6397977e-16 0)
(1.2189745 -5.2553813e-16 0)
(1.2189745 -3.085696e-16 0)
(1.2189745 1.0136047e-16 0)
(1.2189745 8.2683437e-17 0)
(1.2189745 2.9314495e-16 0)
(1.2189745 2.3354906e-16 0)
(1.2189745 -2.8325731e-17 0)
(1.2189745 4.6908379e-17 0)
(1.2189745 -1.6730165e-16 0)
(1.2189745 -9.9886023e-17 0)
(1.2189745 -2.4720614e-17 0)
(1.2189745 2.7788661e-16 0)
(1.2189745 3.1970619e-16 0)
(1.2189745 3.5459866e-17 0)
(1.2189745 6.1792703e-17 0)
(1.2189745 1.613118e-16 0)
(1.2189745 -3.2197336e-16 0)
(1.2189745 -2.4598808e-16 0)
(1.2189745 1.8775823e-16 0)
(1.2189745 1.9608102e-17 0)
(1.2189745 1.5482114e-16 0)
(1.2189745 7.1814636e-17 0)
(1.2189745 -2.9634501e-16 0)
(1.2189745 -1.8084123e-16 0)
(1.2189745 9.3569364e-17 0)
(1.2189745 1.8026293e-16 0)
(1.2189745 3.9642434e-16 0)
(1.2189745 -4.0624405e-16 0)
(1.2189745 -3.6948472e-16 0)
(1.2189745 1.316922e-16 0)
(1.2189745 -4.7028038e-16 0)
(1.2189745 -1.0983241e-15 0)
(1.2189745 -1.2168011e-15 0)
(1.2189745 -5.6410528e-16 0)
(1.2189745 -2.6273335e-16 0)
(1.2189745 -4.7355552e-16 0)
(1.2189745 4.6580741e-16 0)
(1.2189745 1.1309125e-16 0)
(1.2189745 -4.1511689e-17 0)
(1.2189745 5.7599855e-16 0)
(1.2189745 5.4271514e-16 0)
(1.2189745 5.958459e-16 0)
(1.2189745 2.5080732e-16 0)
(1.2189745 8.0817017e-16 0)
(1.2189745 9.5574915e-16 0)
(1.2189745 3.81573e-16 0)
(1.2189745 -1.0999175e-16 0)
(1.2189745 -1.9418396e-16 0)
(1.2189745 2.8386437e-17 0)
(1.2189745 8.2809149e-17 0)
(1.2189745 2.9207938e-16 0)
(1.2189745 1.761582e-16 0)
(1.2189745 5.5213921e-16 0)
(1.2189745 -7.5672169e-18 0)
(1.2189745 -2.4979078e-17 0)
(1.2189745 1.4089141e-15 0)
(1.2189745 1.3208103e-15 0)
(1.2189745 3.4333201e-16 0)
(1.2189745 3.5457981e-16 0)
(1.2189745 6.1710546e-16 0)
(1.2189745 1.0409174e-15 0)
(1.2189745 8.0621036e-16 0)
(1.2189745 6.4118665e-16 0)
(1.2189745 4.9516278e-16 0)
(1.2189745 5.064977e-16 0)
(1.2189745 5.8588016e-16 0)
(1.2189745 2.695803e-16 0)
(1.2189745 7.8942768e-16 0)
(1.2189745 4.6474265e-16 0)
(1.2189745 3.6580714e-16 0)
(1.2189745 7.5520055e-16 0)
(1.2189745 8.2278995e-16 0)
(1.2189745 7.0694928e-16 0)
(1.2189745 6.9672261e-16 0)
(1.2189745 3.0587057e-16 0)
(1.2189745 -9.7887731e-16 0)
(1.2189745 -3.5598701e-16 0)
(1.2189745 9.0568282e-16 0)
(1.2189745 -7.4322904e-16 0)
(1.2189745 -1.4550702e-15 0)
(1.2189745 4.1102985e-16 0)
(1.2189745 1.7224199e-16 0)
(1.2189745 -6.770272e-16 0)
(1.2189745 -1.0013446e-15 0)
(1.2189745 -7.5690404e-16 0)
(1.2189745 -5.9248328e-16 0)
(1.2189745 -1.0009387e-15 0)
(1.2189745 -8.8231633e-16 0)
(1.2189745 4.3736627e-16 0)
(1.2189745 8.2604723e-16 0)
(1.2189745 -2.2412267e-16 0)
(1.2189745 -4.7663945e-16 0)
(1.2189745 -4.2578121e-16 0)
(1.2189745 1.0597796e-15 0)
(1.2189745 5.3381438e-16 0)
(1.2189745 -1.7128641e-15 0)
(1.2189745 -4.9886581e-16 0)
(1.2189745 1.3623322e-15 0)
(1.2189745 7.058049e-16 0)
(1.2189745 -1.1283089e-16 0)
(1.2189745 -4.8748891e-16 0)
(1.2189745 5.6779187e-16 0)
(1.2189745 9.8840627e-16 0)
(1.2189745 2.2340973e-16 0)
(1.2189745 6.2137552e-17 0)
(1.2189745 5.0105064e-16 0)
(1.2189745 -6.5004257e-16 0)
(1.2189745 -3.5921557e-16 0)
(1.2189745 3.9427907e-16 0)
(1.2189745 -4.20913e-16 0)
(1.2189745 2.3001698e-16 0)
(1.2189745 -1.731998e-16 0)
(1.2189745 3.2683115e-16 0)
(1.2189745 -2.375273e-16 0)
(1.2189745 -4.352733e-16 0)
(1.2189745 5.5783657e-17 0)
(1.2189745 -1.1077081e-16 0)
(1.2189745 -2.9357624e-16 0)
(1.2189745 6.6785736e-16 0)
(1.2189745 1.0615679e-15 0)
(1.2189745 -1.283803e-15 0)
(1.2189745 -1.6035822e-15 0)
(1.2189745 8.2623477e-16 0)
(1.2189745 1.3357496e-15 0)
(1.2189745 -9.2995245e-16 0)
(1.2189745 -7.5722118e-16 0)
(1.2189745 1.6007828e-15 0)
(1.2189745 6.0925423e-17 0)
(1.2189745 -1.8715789e-15 0)
(1.2189745 -5.9264333e-16 0)
(1.2189745 -5.8382655e-16 0)
(1.2189745 3.4440154e-16 0)
(1.2189745 8.2811895e-16 0)
(1.2189745 -5.8962217e-16 0)
(1.2189745 -3.7921653e-16 0)
(1.2189745 -1.8543818e-16 0)
(1.2189745 -5.8306938e-16 0)
(1.2189745 -5.5383344e-16 0)
(1.2189745 -3.8071619e-16 0)
(1.2189745 6.0928077e-16 0)
(1.2189745 -4.3758766e-16 0)
(1.2189745 -8.3734744e-16 0)
(1.2189745 3.9538741e-16 0)
(1.2189745 1.3465047e-16 0)
(1.2189745 4.0499328e-17 0)
(1.2189745 3.6550806e-16 0)
(1.2189745 2.8755013e-16 0)
(1.2189745 -2.5859173e-16 0)
(1.2189745 5.7462069e-16 0)
(1.2189745 8.9250464e-16 0)
(1.2189745 1.3208667e-17 0)
(1.2189745 -8.9110793e-16 0)
(1.2189745 -1.3377508e-16 0)
(1.2189745 2.9506926e-17 0)
(1.2189745 -1.4585193e-15 0)
(1.2189745 -3.1834434e-16 0)
(1.2189745 1.2936357e-15 0)
(1.2189745 -8.512344e-16 0)
(1.2189745 -6.8715642e-16 0)
(1.2189745 1.2153274e-15 0)
(1.2189745 -4.7844383e-16 0)
(1.2189745 -7.0211508e-16 0)
(1.2189745 -8.6137038e-16 0)
(1.2189745 -8.6939686e-16 0)
(1.2189745 1.651844e-15 0)
(1.2189745 7.466992e-16 0)
(1.2189745 -1.248922e-15 0)
(1.2189745 1.0533577e-16 0)
(1.2189745 8.41637e-16 0)
(1.2189745 -6.185813e-16 0)
(1.2189745 -7.9082069e-16 0)
(1.2189745 -8.5009635e-16 0)
(1.2189745 1.553096e-16 0)
(1.2189745 2.3475015e-15 0)
(1.2189745 8.1176202e-16 0)
(1.2189745 1.2366625e-15 0)
(1.2189745 1.9194774e-15 0)
(1.2189745 -1.3916481e-15 0)
(1.2189745 -1.9135076e-15 0)
(1.2189745 -7.8283447e-17 0)
(1.2189745 3.3800227e-17 0)
(1.2189745 -5.7391529e-16 0)
(1.2189745 2.230787e-15 0)
(1.2189745 7.2175244e-16 0)
(1.2189745 1.2135188e-15 0)
(1.2189745 2.0662882e-15 0)
(1.2189745 -1.8101789e-15 0)
(1.2189745 -1.8923499e-15 0)
(1.2189745 -2.3427058e-16 0)
(1.2189745 7.0148525e-16 0)
(1.2189745 3.3141382e-16 0)
(1.2189745 7.2496064e-16 0)
(1.2189745 -7.5715571e-16 0)
(1.2189745 2.32824e-16 0)
(1.2189745 -1.9401508e-16 0)
(1.2189745 -4.0171905e-16 0)
(1.2189745 -1.2775533e-15 0)
(1.2189745 -9.4575537e-17 0)
(1.2189745 2.4221944e-15 0)
(1.2189745 1.0888707e-15 0)
(1.2189745 -1.127731e-15 0)
(1.2189745 -1.7834333e-15 0)
(1.2189745 -3.350556e-16 0)
(1.2189745 -1.2175954e-15 0)
(1.2189745 2.5976328e-16 0)
(1.2189745 7.839243e-17 0)
(1.2189745 2.5698066e-16 0)
(1.2189745 2.58628e-15 0)
(1.2189745 2.0288894e-15 0)
(1.2189745 -8.4822642e-16 0)
(1.2189745 -5.1146974e-16 0)
(1.2189745 -7.2302694e-16 0)
(1.2189745 -1.4582365e-15 0)
(1.2189745 1.2802553e-15 0)
(1.2189745 3.3098622e-16 0)
(1.2189745 1.1396688e-15 0)
(1.2189745 1.6947054e-15 0)
(1.2189745 1.1688749e-16 0)
(1.2189745 1.9592832e-16 0)
(1.2189745 6.2207879e-16 0)
(1.2189745 -7.2131766e-16 0)
(1.2189745 -9.2042662e-16 0)
(1.2189745 1.9748179e-16 0)
(1.2189745 1.6271632e-15 0)
(1.2189745 6.488808e-16 0)
(1.2189745 -1.3311986e-15 0)
(1.2189745 4.6945169e-16 0)
(1.2189745 4.0091798e-16 0)
(1.2189745 -4.0751186e-16 0)
(1.2189745 1.1566023e-16 0)
(1.2189745 1.9120238e-16 0)
(1.2189745 3.8327312e-18 0)
(1.2189745 1.8738711e-15 0)
(1.2189745 -1.27757e-16 0)
(1.2189745 -2.5018795e-15 0)
(1.2189745 7.289895e-16 0)
(1.2189745 6.4490516e-16 0)
(1.2189745 -8.3031807e-16 0)
(1.2189745 -3.304327e-16 0)
(1.2189745 -2.3406283e-16 0)
(1.2189745 1.1054283e-15 0)
(1.2189745 2.194216e-15 0)
(1.2189745 1.0819017e-16 0)
(1.2189745 -5.9364419e-16 0)
(1.2189745 -2.9813974e-15 0)
(1.2189745 -2.0685666e-15 0)
(1.2189745 2.2534665e-15 0)
(1.2189745 -1.1327715e-15 0)
(1.2189745 2.1862541e-16 0)
(1.2189745 3.710822e-15 0)
(1.2189745 -9.8341427e-16 0)
(1.2189745 -2.5637298e-15 0)
(1.2189745 -1.4293408e-15 0)
(1.2189745 -1.0238456e-15 0)
(1.2189745 6.5319914e-16 0)
(1.2189745 -1.1566678e-15 0)
(1.2189745 -3.6700338e-16 0)
(1.2189745 2.7079397e-15 0)
(1.2189745 1.1782361e-15 0)
(1.2189745 -3.7178123e-16 0)
(1.2189745 -1.5913923e-15 0)
(1.2189745 -3.0228209e-15 0)
(1.2189745 -6.9705708e-16 0)
(1.2189745 8.3639742e-16 0)
(1.2189745 -2.6563197e-15 0)
(1.2189745 5.0099402e-16 0)
(1.2189745 4.3355962e-16 0)
(1.2189745 -2.7972967e-15 0)
(1.2189745 8.9728181e-16 0)
(1.2189745 -8.8709213e-16 0)
(1.2189745 -2.8772624e-15 0)
(1.2189745 -6.8424546e-16 0)
(1.2189745 -9.7353577e-16 0)
(1.2189745 -4.8029235e-16 0)
(1.2189745 2.4047827e-15 0)
(1.2189745 -1.9317488e-15 0)
(1.2189745 -5.7653264e-15 0)
(1.2189745 -6.3339523e-15 0)
(1.2189745 -1.0736606e-14 0)
(1.2189745 -1.6899727e-14 0)
(1.6885657 -1.5166731e-14 0)
(1.6885657 -1.3165587e-14 0)
(1.6885657 -9.9703812e-15 0)
(1.6885657 -7.3071389e-15 0)
(1.6885657 -4.9412733e-15 0)
(1.6885657 -3.3360755e-15 0)
(1.6885657 -2.2179057e-15 0)
(1.6885657 -1.741303e-15 0)
(1.6885657 -1.7821807e-15 0)
(1.6885657 -1.5632801e-15 0)
(1.6885657 -1.5893671e-15 0)
(1.6885657 -1.611323e-15 0)
(1.6885657 -1.4563403e-15 0)
(1.6885657 -1.233671e-15 0)
(1.6885657 -1.6290705e-15 0)
(1.6885657 -2.0568952e-15 0)
(1.6885657 -2.1834922e-15 0)
(1.6885657 -2.3021763e-15 0)
(1.6885657 -1.9471603e-15 0)
(1.6885657 -1.367352e-15 0)
(1.6885657 -1.0642836e-15 0)
(1.6885657 -6.9382965e-16 0)
(1.6885657 -1.9669739e-16 0)
(1.6885657 -9.8855153e-17 0)
(1.6885657 2.0184106e-16 0)
(1.6885657 1.1378722e-16 0)
(1.6885657 -5.8172399e-17 0)
(1.6885657 2.4892843e-16 0)
(1.6885657 -1.8147115e-16 0)
(1.6885657 -4.3264455e-16 0)
(1.6885657 -1.8090922e-16 0)
(1.6885657 3.7095637e-16 0)
(1.6885657 4.4062578e-16 0)
(1.6885657 2.3174456e-16 0)
(1.6885657 9.8954724e-17 0)
(1.6885657 8.5552645e-17 0)
(1.6885657 -4.5942658e-16 0)
(1.6885657 -2.0727078e-16 0)
(1.6885657 3.4137257e-16 0)
(1.6885657 -1.3224378e-17 0)
(1.6885657 3.7029974e-17 0)
(1.6885657 -2.2137063e-16 0)
(1.6885657 -3.920422e-16 0)
(1.6885657 -4.4466475e-16 0)
(1.6885657 6.7016752e-17 0)
(1.6885657 3.7483636e-16 0)
(1.6885657 3.9676086e-17 0)
(1.6885657 -4.6809637e-16 0)
(1.6885657 -5.1016897e-16 0)
(1.6885657 -3.2583155e-16 0)
(1.6885657 -6.5277417e-16 0)
(1.6885657 -1.6133888e-15 0)
(1.6885657 -2.0082834e-15 0)
(1.6885657 -8.8015778e-16 0)
(1.6885657 -4.3774173e-16 0)
(1.6885657 -7.7076555e-16 0)
(1.6885657 7.07142e-17 0)
(1.6885657 2.921769e-16 0)
(1.6885657 5.4541971e-16 0)
(1.6885657 6.6752767e-16 0)
(1.6885657 8.1403305e-16 0)
(1.6885657 1.2679791e-15 0)
(1.6885657 1.1105997e-15 0)
(1.6885657 9.4762834e-16 0)
(1.6885657 1.0310399e-15 0)
(1.6885657 1.0449981e-15 0)
(1.6885657 1.0784021e-16 0)
(1.6885657 -3.3221713e-16 0)
(1.6885657 5.9804626e-16 0)
(1.6885657 4.4868797e-16 0)
(1.6885657 1.7952154e-16 0)
(1.6885657 5.6935956e-16 0)
(1.6885657 1.2599562e-15 0)
(1.6885657 5.1003596e-16 0)
(1.6885657 1.8936293e-16 0)
(1.6885657 1.9721038e-15 0)
(1.6885657 2.0308463e-15 0)
(1.6885657 8.0954307e-16 0)
(1.6885657 5.9709521e-16 0)
(1.6885657 1.5640044e-15 0)
(1.6885657 1.7578394e-15 0)
(1.6885657 9.4562765e-16 0)
(1.6885657 1.2158765e-15 0)
(1.6885657 8.9328798e-16 0)
(1.6885657 8.4705592e-16 0)
(1.6885657 1.4071852e-15 0)
(1.6885657 9.3298875e-16 0)
(1.6885657 7.5520771e-16 0)
(1.6885657 8.4192886e-16 0)
(1.6885657 1.4926554e-15 0)
(1.6885657 1.9911701e-15 0)
(1.6885657 1.1173745e-15 0)
(1.6885657 1.1754174e-15 0)
(1.6885657 9.2637942e-16 0)
(1.6885657 1.5221845e-16 0)
(1.6885657 -3.8524559e-16 0)
(1.6885657 2.0770723e-16 0)
(1.6885657 4.0340863e-16 0)
(1.6885657 -1.307629e-15 0)
(1.6885657 -1.735257e-15 0)
(1.6885657 -8.4821621e-17 0)
(1.6885657 3.8713308e-16 0)
(1.6885657 -3.7133688e-16 0)