/*--------------------------------*- C++ -*----------------------------------*\
| =========                 |                                                 |
| \\      /  F ield         | OpenFOAM: The Open Source CFD Toolbox           |
|  \\    /   O peration     | Version:  2406                                  |
|   \\  /    A nd           | Website:  www.openfoam.com                      |
|    \\/     M anipulation  |                                                 |
\*---------------------------------------------------------------------------*/
FoamFile
{
    version     2.0;
    format      ascii;
    arch        "LSB;label=32;scalar=64";
    class       volVectorField;
    location    "14";
    object      U_0;
}
// * * * * * * * * * * * * * * * * * * * * * * * * * * * * * * * * * * * * * //

dimensions      [0 1 -1 0 0 0 0];

internalField   nonuniform List<vector> 
30000
(
(0.24979467 -3.7328811e-14 0)
(0.24979467 -1.6282481e-14 0)
(0.24979467 -3.9219739e-15 0)
(0.24979467 -1.4904113e-15 0)
(0.24979467 -8.0224145e-16 0)
(0.24979467 -4.8471543e-16 0)
(0.24979467 -2.957974e-16 0)
(0.24979467 -2.1780409e-16 0)
(0.24979467 -1.5936547e-16 0)
(0.24979467 -8.7500714e-17 0)
(0.24979467 -7.7002081e-17 0)
(0.24979467 -7.5763796e-17 0)
(0.24979467 -9.7662712e-17 0)
(0.24979467 1.8475489e-17 0)
(0.24979467 2.4400896e-17 0)
(0.24979467 -6.8262541e-17 0)
(0.24979467 -5.1346155e-17 0)
(0.24979467 -1.0459144e-16 0)
(0.24979467 -7.7935034e-17 0)
(0.24979467 -7.8308536e-18 0)
(0.24979467 -2.6532772e-17 0)
(0.24979467 -8.723817e-18 0)
(0.24979467 1.6520918e-17 0)
(0.24979467 2.5201237e-17 0)
(0.24979467 -2.7513544e-17 0)
(0.24979467 3.8668819e-17 0)
(0.24979467 3.0629564e-17 0)
(0.24979467 7.5931029e-17 0)
(0.24979467 -9.0433183e-17 0)
(0.24979467 -5.3818856e-19 0)
(0.24979467 8.3666145e-17 0)
(0.24979467 -1.1292134e-16 0)
(0.24979467 2.1084642e-17 0)
(0.24979467 1.0082527e-16 0)
(0.24979467 -6.2361633e-17 0)
(0.24979467 1.6647129e-17 0)
(0.24979467 -3.3839873e-18 0)
(0.24979467 2.089185e-17 0)
(0.24979467 3.0689039e-18 0)
(0.24979467 -1.1129434e-16 0)
(0.24979467 9.5519414e-17 0)
(0.24979467 -6.2156657e-17 0)
(0.24979467 1.3872424e-16 0)
(0.24979467 8.8295964e-17 0)
(0.24979467 -2.3383939e-16 0)
(0.24979467 -3.1459105e-17 0)
(0.24979467 1.1612225e-16 0)
(0.24979467 -5.9395301e-17 0)
(0.24979467 -1.6012273e-17 0)
(0.24979467 1.135118e-16 0)
(0.24979467 1.942684e-17 0)
(0.24979467 4.3291921e-17 0)
(0.24979467 -2.7505396e-16 0)
(0.24979467 -1.8824558e-16 0)
(0.24979467 1.4348311e-16 0)
(0.24979467 7.4880043e-18 0)
(0.24979467 1.7338894e-16 0)
(0.24979467 -1.0754522e-16 0)
(0.24979467 -1.627993e-16 0)
(0.24979467 1.1992723e-16 0)
(0.24979467 1.1069635e-16 0)
(0.24979467 -9.3315412e-17 0)
(0.24979467 2.6300555e-17 0)
(0.24979467 2.1020175e-16 0)
(0.24979467 -2.3052021e-16 0)
(0.24979467 -3.3934715e-17 0)
(0.24979467 7.6340811e-17 0)
(0.24979467 1.318855e-16 0)
(0.24979467 3.2776608e-17 0)
(0.24979467 -1.6260818e-16 0)
(0.24979467 -1.6764887e-16 0)
(0.24979467 1.1735511e-17 0)
(0.24979467 3.5007994e-16 0)
(0.24979467 -1.2373565e-16 0)
(0.24979467 -2.1747674e-16 0)
(0.24979467 3.622608e-16 0)
(0.24979467 9.4968399e-17 0)
(0.24979467 -3.0790738e-16 0)
(0.24979467 -3.0424368e-18 0)
(0.24979467 1.8249085e-16 0)
(0.24979467 6.7668581e-17 0)
(0.24979467 1.5944444e-17 0)
(0.24979467 1.7622178e-18 0)
(0.24979467 1.2171434e-16 0)
(0.24979467 -2.4991618e-16 0)
(0.24979467 1.6033306e-16 0)
(0.24979467 2.4552782e-16 0)
(0.24979467 -2.2166337e-16 0)
(0.24979467 -2.62116e-17 0)
(0.24979467 -1.7134933e-16 0)
(0.24979467 4.3520575e-17 0)
(0.24979467 3.3244114e-16 0)
(0.24979467 -8.1773293e-17 0)
(0.24979467 -5.4540935e-17 0)
(0.24979467 4.8259032e-17 0)
(0.24979467 -4.7257106e-16 0)
(0.24979467 8.6429527e-17 0)
(0.24979467 3.0711145e-16 0)
(0.24979467 -1.74211e-16 0)
(0.24979467 -7.9687634e-17 0)
(0.24979467 6.0143525e-17 0)
(0.24979467 2.6919985e-16 0)
(0.24979467 -3.5327318e-16 0)
(0.24979467 -3.3397767e-16 0)
(0.24979467 4.7784112e-16 0)
(0.24979467 -3.0505579e-16 0)
(0.24979467 -3.4792654e-16 0)
(0.24979467 2.1185905e-16 0)
(0.24979467 3.8044403e-17 0)
(0.24979467 3.2412166e-16 0)
(0.24979467 -2.9014162e-16 0)
(0.24979467 -3.412721e-16 0)
(0.24979467 2.0235148e-16 0)
(0.24979467 1.5522774e-16 0)
(0.24979467 3.2075499e-16 0)
(0.24979467 -1.1830761e-16 0)
(0.24979467 -5.9098404e-16 0)
(0.24979467 3.5862529e-17 0)
(0.24979467 3.1956794e-16 0)
(0.24979467 -2.0184137e-17 0)
(0.24979467 -2.8207525e-17 0)
(0.24979467 6.3283898e-17 0)
(0.24979467 4.0200494e-16 0)
(0.24979467 -2.1312291e-17 0)
(0.24979467 -6.3493026e-16 0)
(0.24979467 2.8298977e-16 0)
(0.24979467 2.9657791e-16 0)
(0.24979467 -2.6811826e-16 0)
(0.24979467 -1.4335456e-17 0)
(0.24979467 -4.5193697e-17 0)
(0.24979467 -2.9564781e-16 0)
(0.24979467 -3.5833847e-17 0)
(0.24979467 3.465363e-16 0)
(0.24979467 -3.1863561e-17 0)
(0.24979467 -9.3014037e-17 0)
(0.24979467 9.1282856e-17 0)
(0.24979467 2.5356379e-16 0)
(0.24979467 -2.6614214e-16 0)
(0.24979467 3.042326e-17 0)
(0.24979467 3.011408e-16 0)
(0.24979467 -3.6042374e-16 0)
(0.24979467 -3.7036888e-16 0)
(0.24979467 5.0887615e-17 0)
(0.24979467 3.9835228e-16 0)
(0.24979467 -3.74512e-17 0)
(0.24979467 -3.1293533e-17 0)
(0.24979467 3.5395549e-16 0)
(0.24979467 -3.1475348e-16 0)
(0.24979467 -4.3603432e-16 0)
(0.24979467 3.1404994e-16 0)
(0.24979467 -1.8112125e-17 0)
(0.24979467 3.1824849e-18 0)
(0.24979467 4.1448467e-16 0)
(0.24979467 -3.4040286e-16 0)
(0.24979467 -5.4545018e-17 0)
(0.24979467 2.6332813e-16 0)
(0.24979467 -6.2224819e-16 0)
(0.24979467 -3.3011937e-16 0)
(0.24979467 5.6178473e-16 0)
(0.24979467 5.8687353e-16 0)
(0.24979467 -4.9057029e-16 0)
(0.24979467 -1.3949843e-16 0)
(0.24979467 -2.7390078e-17 0)
(0.24979467 -2.7362844e-17 0)
(0.24979467 4.293147e-17 0)
(0.24979467 6.515533e-17 0)
(0.24979467 7.8701106e-17 0)
(0.24979467 -5.5095361e-16 0)
(0.24979467 8.2710221e-16 0)
(0.24979467 1.1567814e-16 0)
(0.24979467 -8.9964377e-16 0)
(0.24979467 7.4800483e-16 0)
(0.24979467 3.4154811e-16 0)
(0.24979467 -8.7007916e-16 0)
(0.24979467 1.1581816e-16 0)
(0.24979467 1.8576395e-17 0)
(0.24979467 8.1423818e-17 0)
(0.24979467 -3.0831516e-17 0)
(0.24979467 -3.5337704e-17 0)
(0.24979467 2.8630674e-16 0)
(0.24979467 -4.8413892e-16 0)
(0.24979467 -1.0982318e-16 0)
(0.24979467 1.6527207e-16 0)
(0.24979467 -2.5097975e-16 0)
(0.24979467 6.7161855e-16 0)
(0.24979467 1.6727291e-17 0)
(0.24979467 -6.2355668e-16 0)
(0.24979467 5.2186579e-16 0)
(0.24979467 8.609316e-17 0)
(0.24979467 -2.6340454e-16 0)
(0.24979467 -8.921908e-17 0)
(0.24979467 -9.8580056e-17 0)
(0.24979467 -5.3644939e-16 0)
(0.24979467 4.339444e-16 0)
(0.24979467 5.9712939e-16 0)
(0.24979467 -2.0823769e-16 0)
(0.24979467 1.3776347e-16 0)
(0.24979467 4.7376305e-16 0)
(0.24979467 -7.1126451e-16 0)
(0.24979467 -5.9304275e-16 0)
(0.24979467 4.7907776e-16 0)
(0.24979467 -8.4364757e-17 0)
(0.24979467 1.5313107e-16 0)
(0.24979467 1.6872623e-16 0)
(0.24979467 5.711654e-16 0)
(0.24979467 -4.4190553e-16 0)
(0.24979467 -6.5748953e-16 0)
(0.24979467 3.6318795e-16 0)
(0.24979467 7.8827244e-17 0)
(0.24979467 6.0491878e-17 0)
(0.24979467 5.5631839e-16 0)
(0.24979467 -4.7765321e-16 0)
(0.24979467 -5.9261513e-16 0)
(0.24979467 1.0908899e-15 0)
(0.24979467 -5.2864757e-16 0)
(0.24979467 -5.83432e-16 0)
(0.24979467 3.8414242e-16 0)
(0.24979467 5.4001449e-17 0)
(0.24979467 1.7231297e-16 0)
(0.24979467 6.2468486e-16 0)
(0.24979467 -2.0470188e-17 0)
(0.24979467 -7.0229205e-16 0)
(0.24979467 -5.837976e-16 0)
(0.24979467 -9.0134181e-17 0)
(0.24979467 4.7207061e-16 0)
(0.24979467 -4.1517737e-16 0)
(0.24979467 5.542273e-16 0)
(0.24979467 6.3384506e-16 0)
(0.24979467 -2.7896207e-16 0)
(0.24979467 5.0691289e-16 0)
(0.24979467 -6.6601167e-17 0)
(0.24979467 -1.111435e-15 0)
(0.24979467 4.1574572e-16 0)
(0.24979467 8.3025037e-17 0)
(0.24979467 -5.6979841e-16 0)
(0.24979467 5.5413741e-16 0)
(0.24979467 2.1829738e-16 0)
(0.24979467 5.445795e-16 0)
(0.24979467 -5.7631694e-16 0)
(0.24979467 -1.73077e-17 0)
(0.24979467 -9.4633645e-17 0)
(0.24979467 -5.7843551e-16 0)
(0.24979467 5.6175383e-16 0)
(0.24979467 6.7841901e-16 0)
(0.24979467 -5.2945788e-16 0)
(0.24979467 -9.7295791e-17 0)
(0.24979467 5.591033e-16 0)
(0.24979467 -5.5581623e-16 0)
(0.24979467 -1.0188155e-16 0)
(0.24979467 -5.5758347e-16 0)
(0.24979467 -2.8210355e-17 0)
(0.24979467 1.161236e-16 0)
(0.24979467 1.2395921e-15 0)
(0.24979467 -3.2158559e-17 0)
(0.24979467 -6.5449694e-16 0)
(0.24979467 5.4301798e-16 0)
(0.24979467 -4.9809317e-16 0)
(0.24979467 -6.2385259e-16 0)
(0.24979467 5.003769e-16 0)
(0.24979467 -4.0131566e-17 0)
(0.24979467 1.2987825e-16 0)
(0.24979467 6.5196798e-16 0)
(0.24979467 -1.1181546e-15 0)
(0.24979467 4.3189744e-16 0)
(0.24979467 -1.235774e-16 0)
(0.24979467 -1.700771e-16 0)
(0.24979467 1.9479034e-16 0)
(0.24979467 -6.2519661e-16 0)
(0.24979467 5.8312159e-16 0)
(0.24979467 1.4720982e-15 0)
(0.24979467 -1.1934772e-15 0)
(0.24979467 -8.6039568e-16 0)
(0.24979467 4.4488909e-16 0)
(0.24979467 -4.9805117e-16 0)
(0.24979467 1.0628233e-15 0)
(0.24979467 -1.1636133e-15 0)
(0.24979467 -6.4306604e-17 0)
(0.24979467 1.2552069e-15 0)
(0.24979467 2.0481611e-16 0)
(0.24979467 -5.6441082e-16 0)
(0.24979467 -1.7145823e-16 0)
(0.24979467 -9.9453785e-17 0)
(0.24979467 4.1008496e-18 0)
(0.24979467 9.5960311e-18 0)
(0.24979467 -7.2420915e-16 0)
(0.24979467 1.0735884e-15 0)
(0.24979467 -5.1559735e-16 0)
(0.24979467 -7.9436707e-16 0)
(0.24979467 6.3148616e-16 0)
(0.24979467 5.8899863e-16 0)
(0.24979467 -8.3230091e-16 0)
(0.24979467 -6.5956079e-16 0)
(0.24979467 3.4090084e-16 0)
(0.24979467 -1.4582549e-16 0)
(0.24979467 7.2412795e-16 0)
(0.24979467 1.0879367e-16 0)
(0.24979467 -2.6709714e-15 0)
(0.24979467 -1.5564089e-15 0)
(0.24979467 -3.4628789e-15 0)
(0.24979467 -1.6697328e-14 0)
(0.7393842 -5.1090863e-14 0)
(0.7393842 -2.7013084e-14 0)
(0.7393842 -1.2260709e-14 0)
(0.7393842 -6.5753334e-15 0)
(0.7393842 -3.8012268e-15 0)
(0.7393842 -2.2895478e-15 0)
(0.7393842 -1.4782567e-15 0)
(0.7393842 -1.0961328e-15 0)
(0.7393842 -7.804678e-16 0)
(0.7393842 -7.2938408e-16 0)
(0.7393842 -5.974602e-16 0)
(0.7393842 -3.7007738e-16 0)
(0.7393842 -3.5032073e-16 0)
(0.7393842 -2.2795134e-16 0)
(0.7393842 -3.1357692e-16 0)
(0.7393842 -3.8766532e-16 0)
(0.7393842 -5.580686e-16 0)
(0.7393842 -6.5934077e-16 0)
(0.7393842 -5.8534737e-16 0)
(0.7393842 -2.2153645e-16 0)
(0.7393842 -2.626587e-16 0)
(0.7393842 -2.5610051e-16 0)
(0.7393842 1.3145174e-16 0)
(0.7393842 5.7715351e-17 0)
(0.7393842 5.6979228e-17 0)
(0.7393842 1.9540507e-16 0)
(0.7393842 1.3789394e-16 0)
(0.7393842 -4.7373894e-17 0)
(0.7393842 -2.1536937e-16 0)
(0.7393842 -5.3392674e-17 0)
(0.7393842 5.7431124e-17 0)
(0.7393842 -1.2133857e-17 0)
(0.7393842 5.2912871e-17 0)
(0.7393842 2.5479901e-16 0)
(0.7393842 -9.800738e-17 0)
(0.7393842 -2.6011241e-17 0)
(0.7393842 2.3097946e-17 0)
(0.7393842 -1.0462099e-17 0)
(0.7393842 1.6460163e-17 0)
(0.7393842 -1.2410405e-16 0)
(0.7393842 3.1101104e-16 0)
(0.7393842 -9.4349495e-17 0)
(0.7393842 -2.4374085e-17 0)
(0.7393842 1.7220443e-16 0)
(0.7393842 -2.2569019e-16 0)
(0.7393842 6.9841083e-17 0)
(0.7393842 1.3876277e-16 0)
(0.7393842 -2.938124e-16 0)
(0.7393842 -4.5020027e-17 0)
(0.7393842 1.5196693e-16 0)
(0.7393842 -1.0757408e-16 0)
(0.7393842 -3.7354995e-16 0)
(0.7393842 -8.6421207e-16 0)
(0.7393842 -4.8922751e-16 0)
(0.7393842 2.0057663e-16 0)
(0.7393842 -2.1666126e-16 0)
(0.7393842 1.7089958e-16 0)
(0.7393842 3.1319595e-17 0)
(0.7393842 -1.9063023e-16 0)
(0.7393842 2.6540805e-16 0)
(0.7393842 2.2245521e-16 0)
(0.7393842 -5.8544483e-17 0)
(0.7393842 1.8653953e-16 0)
(0.7393842 5.9423507e-16 0)
(0.7393842 3.4731121e-17 0)
(0.7393842 3.7375972e-16 0)
(0.7393842 -2.0453932e-16 0)
(0.7393842 -2.495465e-16 0)
(0.7393842 5.3207545e-16 0)
(0.7393842 -2.3950516e-16 0)
(0.7393842 -3.183926e-16 0)
(0.7393842 1.3452184e-16 0)
(0.7393842 5.3890402e-16 0)
(0.7393842 -1.0843348e-16 0)
(0.7393842 -1.6006459e-16 0)
(0.7393842 9.625854e-16 0)
(0.7393842 3.6119425e-16 0)
(0.7393842 -4.0604895e-16 0)
(0.7393842 2.9151965e-16 0)
(0.7393842 7.285087e-16 0)
(0.7393842 3.2279046e-16 0)
(0.7393842 1.5732127e-16 0)
(0.7393842 6.052254e-16 0)
(0.7393842 -7.3869521e-18 0)
(0.7393842 -4.5137523e-16 0)
(0.7393842 7.6209806e-16 0)
(0.7393842 3.1174235e-16 0)
(0.7393842 -2.7343224e-16 0)
(0.7393842 2.5194945e-16 0)
(0.7393842 1.2707215e-16 0)
(0.7393842 1.0795242e-16 0)
(0.7393842 4.35282e-16 0)
(0.7393842 4.0549805e-16 0)
(0.7393842 -4.0386286e-17 0)
(0.7393842 -7.4475171e-17 0)
(0.7393842 -6.9820497e-16 0)
(0.7393842 -7.201755e-17 0)
(0.7393842 4.044031e-16 0)
(0.7393842 -3.9517179e-16 0)
(0.7393842 -4.902797e-16 0)
(0.7393842 -7.0776746e-17 0)
(0.7393842 2.0044817e-17 0)
(0.7393842 -2.6461078e-16 0)
(0.7393842 -1.1529127e-16 0)
(0.7393842 -3.2065149e-16 0)
(0.7393842 -1.0106169e-15 0)
(0.7393842 -6.3679093e-16 0)
(0.7393842 -2.03945e-17 0)
(0.7393842 1.671773e-16 0)
(0.7393842 6.6076421e-16 0)
(0.7393842 -4.0080811e-17 0)
(0.7393842 -9.1163213e-16 0)
(0.7393842 -1.6348026e-16 0)
(0.7393842 9.9023118e-16 0)
(0.7393842 3.0839155e-16 0)
(0.7393842 -7.5408845e-16 0)
(0.7393842 -6.6940103e-16 0)
(0.7393842 2.7326578e-16 0)
(0.7393842 5.8906275e-16 0)
(0.7393842 6.0779539e-17 0)
(0.7393842 -1.1477179e-16 0)
(0.7393842 2.2751634e-16 0)
(0.7393842 7.6301487e-16 0)
(0.7393842 2.3713308e-16 0)
(0.7393842 -6.7127865e-16 0)
(0.7393842 3.5771047e-16 0)
(0.7393842 2.1584223e-16 0)
(0.7393842 -3.5577446e-16 0)
(0.7393842 -1.0631445e-16 0)
(0.7393842 -1.7672611e-16 0)
(0.7393842 -3.5930645e-16 0)
(0.7393842 3.5269713e-17 0)
(0.7393842 1.0199972e-15 0)
(0.7393842 -7.8276524e-16 0)
(0.7393842 -8.8595684e-16 0)
(0.7393842 6.4658832e-16 0)
(0.7393842 3.3766454e-16 0)
(0.7393842 -2.7985526e-16 0)
(0.7393842 5.3059565e-16 0)
(0.7393842 2.0905207e-16 0)
(0.7393842 -1.0516144e-15 0)
(0.7393842 -6.0569986e-16 0)
(0.7393842 2.0811187e-16 0)
(0.7393842 8.2874037e-16 0)
(0.7393842 -1.7595943e-16 0)
(0.7393842 -1.1709628e-16 0)
(0.7393842 7.0380641e-16 0)
(0.7393842 -4.5386197e-16 0)
(0.7393842 -8.1405506e-16 0)
(0.7393842 6.9839889e-16 0)
(0.7393842 -8.5411812e-16 0)
(0.7393842 -6.5202876e-16 0)
(0.7393842 1.4225907e-15 0)
(0.7393842 -6.1140072e-16 0)
(0.7393842 -3.8805766e-16 0)
(0.7393842 5.7945325e-16 0)
(0.7393842 -7.9075278e-16 0)
(0.7393842 -4.7603275e-17 0)
(0.7393842 -1.2797109e-16 0)
(0.7393842 1.1658605e-16 0)
(0.7393842 1.6157614e-16 0)
(0.7393842 -5.6372176e-16 0)
(0.7393842 -4.0517805e-16 0)
(0.7393842 2.2328865e-16 0)
(0.7393842 1.880311e-16 0)
(0.7393842 3.107549e-16 0)
(0.7393842 6.9547277e-16 0)
(0.7393842 -1.2432859e-15 0)
(0.7393842 5.1620829e-16 0)
(0.7393842 1.2063332e-15 0)
(0.7393842 -1.2934966e-15 0)
(0.7393842 3.9872051e-16 0)
(0.7393842 8.5851991e-16 0)
(0.7393842 -1.3720523e-15 0)
(0.7393842 -5.7516245e-16 0)
(0.7393842 1.7209447e-16 0)
(0.7393842 4.1241523e-16 0)
(0.7393842 1.3451699e-16 0)
(0.7393842 -4.9946238e-16 0)
(0.7393842 2.5642942e-16 0)
(0.7393842 -1.6469948e-17 0)
(0.7393842 -5.9392163e-16 0)
(0.7393842 -4.0509654e-16 0)
(0.7393842 -1.8310491e-16 0)
(0.7393842 1.0627965e-15 0)
(0.7393842 1.8448522e-16 0)
(0.7393842 -6.6450705e-16 0)
(0.7393842 1.8164169e-16 0)
(0.7393842 -1.7462651e-17 0)
(0.7393842 2.0349014e-16 0)
(0.7393842 -6.1507416e-16 0)
(0.7393842 -6.685514e-16 0)
(0.7393842 -1.3383024e-16 0)
(0.7393842 1.1083495e-15 0)
(0.7393842 1.1042233e-15 0)
(0.7393842 1.4882526e-16 0)
(0.7393842 5.4787363e-16 0)
(0.7393842 3.1871742e-16 0)
(0.7393842 -1.3001576e-15 0)
(0.7393842 -9.6372887e-16 0)
(0.7393842 2.9072012e-16 0)
(0.7393842 -7.7400041e-16 0)
(0.7393842 1.2815292e-15 0)
(0.7393842 1.1982439e-15 0)
(0.7393842 9.1861987e-17 0)
(0.7393842 5.0116534e-16 0)
(0.7393842 -5.1512138e-16 0)
(0.7393842 -5.9593274e-16 0)
(0.7393842 4.7678931e-16 0)
(0.7393842 -4.0703668e-16 0)
(0.7393842 8.2847417e-17 0)
(0.7393842 9.4837483e-17 0)
(0.7393842 -6.8391145e-16 0)
(0.7393842 8.1612994e-16 0)
(0.7393842 -5.1612524e-17 0)
(0.7393842 -1.106775e-16 0)
(0.7393842 -3.9532833e-16 0)
(0.7393842 -5.1790167e-17 0)
(0.7393842 8.2607218e-16 0)
(0.7393842 1.1892623e-15 0)
(0.7393842 -1.8585083e-16 0)
(0.7393842 -1.255721e-15 0)
(0.7393842 -4.87911e-16 0)
(0.7393842 -1.1062427e-15 0)
(0.7393842 -1.3963546e-16 0)
(0.7393842 7.0471799e-16 0)
(0.7393842 3.1263337e-16 0)
(0.7393842 7.7768587e-16 0)
(0.7393842 1.3962231e-15 0)
(0.7393842 1.1899147e-16 0)
(0.7393842 -8.404093e-16 0)
(0.7393842 -9.5992057e-16 0)
(0.7393842 3.7080484e-16 0)
(0.7393842 2.2920417e-16 0)
(0.7393842 -5.9922254e-16 0)
(0.7393842 1.0024749e-15 0)
(0.7393842 8.0880249e-16 0)
(0.7393842 8.9199501e-16 0)
(0.7393842 -5.6254689e-16 0)
(0.7393842 4.3110217e-17 0)
(0.7393842 -2.1478609e-16 0)
(0.7393842 -9.1305778e-16 0)
(0.7393842 6.6582884e-16 0)
(0.7393842 1.2377585e-15 0)
(0.7393842 -4.8610202e-16 0)
(0.7393842 -3.3708299e-16 0)
(0.7393842 6.4903503e-16 0)
(0.7393842 -7.3046546e-16 0)
(0.7393842 -2.6095674e-16 0)
(0.7393842 -6.1535181e-16 0)
(0.7393842 1.2262514e-16 0)
(0.7393842 7.9663518e-16 0)
(0.7393842 1.1136636e-15 0)
(0.7393842 -6.8484526e-16 0)
(0.7393842 -6.4074569e-16 0)
(0.7393842 6.5657498e-16 0)
(0.7393842 -5.3425678e-16 0)
(0.7393842 -9.4022542e-16 0)
(0.7393842 3.8077745e-16 0)
(0.7393842 -6.362543e-17 0)
(0.7393842 6.0126553e-16 0)
(0.7393842 1.3848545e-15 0)
(0.7393842 -1.2491754e-15 0)
(0.7393842 2.3289804e-16 0)
(0.7393842 -7.897402e-16 0)
(0.7393842 -6.2956307e-16 0)
(0.7393842 1.5035157e-15 0)
(0.7393842 -2.054782e-15 0)
(0.7393842 -4.8258347e-16 0)
(0.7393842 3.5347527e-15 0)
(0.7393842 -1.4179957e-15 0)
(0.7393842 -1.7101212e-15 0)
(0.7393842 1.8922581e-16 0)
(0.7393842 -9.3597742e-16 0)
(0.7393842 1.0437623e-15 0)
(0.7393842 -1.3421943e-15 0)
(0.7393842 -1.0977581e-16 0)
(0.7393842 1.9384958e-15 0)
(0.7393842 1.2015968e-15 0)
(0.7393842 -1.4278613e-15 0)
(0.7393842 -1.5680346e-15 0)
(0.7393842 -3.9844884e-16 0)
(0.7393842 -1.5315404e-16 0)
(0.7393842 -8.6864353e-17 0)
(0.7393842 -1.4796938e-15 0)
(0.7393842 1.1988081e-15 0)
(0.7393842 -6.2600601e-16 0)
(0.7393842 -1.7081282e-15 0)
(0.7393842 7.1625902e-16 0)
(0.7393842 4.7678776e-16 0)
(0.7393842 -1.7817606e-15 0)
(0.7393842 -3.7616962e-16 0)
(0.7393842 -1.4002678e-15 0)
(0.7393842 -1.8926506e-15 0)
(0.7393842 1.8512143e-15 0)
(0.7393842 -8.7800131e-16 0)
(0.7393842 -6.0123192e-15 0)
(0.7393842 -5.9471059e-15 0)
(0.7393842 -1.2361942e-14 0)
(0.7393842 -2.8077833e-14 0)
(1.2189743 -2.9824665e-14 0)
(1.2189743 -2.1047683e-14 0)
(1.2189743 -1.3197627e-14 0)
(1.2189743 -8.6305762e-15 0)
(1.2189743 -5.5759233e-15 0)
(1.2189743 -3.6528105e-15 0)
(1.2189743 -2.4121693e-15 0)
(1.2189743 -1.8398419e-15 0)
(1.2189743 -1.5367408e-15 0)
(1.2189743 -1.4179859e-15 0)
(1.2189743 -1.3623919e-15 0)
(1.2189743 -9.4046279e-16 0)
(1.2189743 -8.706056e-16 0)
(1.2189743 -7.5779564e-16 0)
(1.2189743 -9.0705099e-16 0)
(1.2189743 -8.8789926e-16 0)
(1.2189743 -1.2811173e-15 0)
(1.2189743 -1.4391216e-15 0)
(1.2189743 -1.2942879e-15 0)
(1.2189743 -9.6908027e-16 0)
(1.2189743 -6.3433908e-16 0)
(1.2189743 -3.9524472e-16 0)
(1.2189743 -3.774612e-17 0)
(1.2189743 -3.6221991e-17 0)
(1.2189743 2.9193231e-16 0)
(1.2189743 1.8689215e-16 0)
(1.2189743 -7.5187127e-17 0)
(1.2189743 3.7718088e-17 0)
(1.2189743 -1.8217381e-16 0)
(1.2189743 -1.8230436e-16 0)
(1.2189743 -3.0031138e-17 0)
(1.2189743 3.0239487e-16 0)
(1.2189743 2.7041861e-16 0)
(1.2189743 3.5814774e-17 0)
(1.2189743 1.0542486e-16 0)
(1.2189743 1.6785772e-16 0)
(1.2189743 -3.4500937e-16 0)
(1.2189743 -1.6938716e-16 0)
(1.2189743 2.3997416e-16 0)
(1.2189743 4.3911487e-17 0)
(1.2189743 1.1153287e-16 0)
(1.2189743 5.6438728e-17 0)
(1.2189743 -3.0346084e-16 0)
(1.2189743 -2.5405403e-16 0)
(1.2189743 1.0708364e-17 0)
(1.2189743 1.5226814e-16 0)
(1.2189743 3.1545997e-16 0)
(1.2189743 -5.2170156e-16 0)
(1.2189743 -4.0927954e-16 0)
(1.2189743 1.41101e-16 0)
(1.2189743 -5.1353383e-16 0)
(1.2189743 -1.2383938e-15 0)
(1.2189743 -1.3063669e-15 0)
(1.2189743 -5.9492543e-16 0)
(1.2189743 -3.0956532e-16 0)
(1.2189743 -4.4129837e-16 0)
(1.2189743 4.3717596e-16 0)
(1.2189743 4.50536e-17 0)
(1.2189743 -1.5038951e-16 0)
(1.2189743 4.0048611e-16 0)
(1.2189743 3.1967417e-16 0)
(1.2189743 4.8978433e-16 0)
(1.2189743 1.8666341e-16 0)
(1.2189743 7.8030779e-16 0)
(1.2189743 9.3905942e-16 0)
(1.2189743 4.0445712e-16 0)
(1.2189743 -6.8650935e-17 0)
(1.2189743 -1.5264462e-16 0)
(1.2189743 9.5348995e-17 0)
(1.2189743 1.1043964e-16 0)
(1.2189743 2.922743e-16 0)
(1.2189743 2.2217717e-16 0)
(1.2189743 5.5837523e-16 0)
(1.2189743 2.2536996e-17 0)
(1.2189743 8.2258115e-18 0)
(1.2189743 1.491474e-15 0)
(1.2189743 1.3187674e-15 0)
(1.2189743 3.3314785e-16 0)
(1.2189743 3.4121826e-16 0)
(1.2189743 5.986868e-16 0)
(1.2189743 1.0270867e-15 0)
(1.2189743 8.8923121e-16 0)
(1.2189743 6.9857855e-16 0)
(1.2189743 5.3140193e-16 0)
(1.2189743 4.1547952e-16 0)
(1.2189743 4.1578982e-16 0)
(1.2189743 1.4281067e-16 0)
(1.2189743 7.019225e-16 0)
(1.2189743 4.4454553e-16 0)
(1.2189743 3.5685185e-16 0)
(1.2189743 7.1319877e-16 0)
(1.2189743 7.4768848e-16 0)
(1.2189743 6.3614912e-16 0)
(1.2189743 6.8073261e-16 0)
(1.2189743 2.1949002e-16 0)
(1.2189743 -1.0417173e-15 0)
(1.2189743 -4.0663086e-16 0)
(1.2189743 8.6119446e-16 0)
(1.2189743 -7.7255752e-16 0)
(1.2189743 -1.5973931e-15 0)
(1.2189743 2.6403063e-16 0)
(1.2189743 1.0276653e-16 0)
(1.2189743 -7.6578889e-16 0)
(1.2189743 -1.1224043e-15 0)
(1.2189743 -9.0892193e-16 0)
(1.2189743 -6.8518143e-16 0)
(1.2189743 -1.0955116e-15 0)
(1.2189743 -9.4773844e-16 0)
(1.2189743 4.5889752e-16 0)
(1.2189743 7.9247221e-16 0)
(1.2189743 -2.2106994e-16 0)
(1.2189743 -5.4704797e-16 0)
(1.2189743 -4.2673003e-16 0)
(1.2189743 1.1324539e-15 0)
(1.2189743 6.2909547e-16 0)
(1.2189743 -1.7383976e-15 0)
(1.2189743 -5.1701326e-16 0)
(1.2189743 1.2569822e-15 0)
(1.2189743 7.0039846e-16 0)
(1.2189743 -1.0440019e-17 0)
(1.2189743 -3.7791664e-16 0)
(1.2189743 5.7325291e-16 0)
(1.2189743 9.7711987e-16 0)
(1.2189743 2.3080812e-16 0)
(1.2189743 6.3862229e-17 0)
(1.2189743 5.5555386e-16 0)
(1.2189743 -6.5135197e-16 0)
(1.2189743 -3.8970451e-16 0)
(1.2189743 3.4574336e-16 0)
(1.2189743 -5.538317e-16 0)
(1.2189743 1.71185e-16 0)
(1.2189743 -1.8882956e-16 0)
(1.2189743 2.490311e-16 0)
(1.2189743 -2.5881554e-16 0)
(1.2189743 -3.2325101e-16 0)
(1.2189743 5.5863703e-17 0)
(1.2189743 -2.0267739e-16 0)
(1.2189743 -4.0161382e-16 0)
(1.2189743 6.672403e-16 0)
(1.2189743 1.1455173e-15 0)
(1.2189743 -1.2759744e-15 0)
(1.2189743 -1.6815792e-15 0)
(1.2189743 7.8002623e-16 0)
(1.2189743 1.3300213e-15 0)
(1.2189743 -9.2351353e-16 0)
(1.2189743 -7.8441858e-16 0)
(1.2189743 1.5334724e-15 0)
(1.2189743 5.7890216e-17 0)
(1.2189743 -1.8361085e-15 0)
(1.2189743 -5.7244659e-16 0)
(1.2189743 -5.8480686e-16 0)
(1.2189743 2.2764242e-16 0)
(1.2189743 7.877275e-16 0)
(1.2189743 -4.9900152e-16 0)
(1.2189743 -2.2948847e-16 0)
(1.2189743 -1.5727631e-17 0)
(1.2189743 -5.3051451e-16 0)
(1.2189743 -5.3900134e-16 0)
(1.2189743 -3.6699344e-16 0)
(1.2189743 5.6253511e-16 0)
(1.2189743 -5.0245151e-16 0)
(1.2189743 -8.5443322e-16 0)
(1.2189743 4.2577332e-16 0)
(1.2189743 1.8887636e-16 0)
(1.2189743 2.5003366e-17 0)
(1.2189743 3.4163651e-16 0)
(1.2189743 2.288138e-16 0)
(1.2189743 -3.0799984e-16 0)
(1.2189743 5.4368556e-16 0)
(1.2189743 7.4372112e-16 0)
(1.2189743 -1.1302927e-16 0)
(1.2189743 -8.6914944e-16 0)
(1.2189743 -8.9440446e-17 0)
(1.2189743 1.0314466e-16 0)
(1.2189743 -1.5115295e-15 0)
(1.2189743 -4.5295908e-16 0)
(1.2189743 1.3096863e-15 0)
(1.2189743 -7.2050971e-16 0)
(1.2189743 -5.7937013e-16 0)
(1.2189743 1.2525352e-15 0)
(1.2189743 -4.2740505e-16 0)
(1.2189743 -6.736416e-16 0)
(1.2189743 -8.5366236e-16 0)
(1.2189743 -9.12837e-16 0)
(1.2189743 1.5530893e-15 0)
(1.2189743 6.201471e-16 0)
(1.2189743 -1.3346695e-15 0)
(1.2189743 1.0963587e-16 0)
(1.2189743 8.752545e-16 0)
(1.2189743 -5.7443881e-16 0)
(1.2189743 -7.1099406e-16 0)
(1.2189743 -8.3056468e-16 0)
(1.2189743 2.065086e-16 0)
(1.2189743 2.3097085e-15 0)
(1.2189743 7.7660939e-16 0)
(1.2189743 1.2187253e-15 0)
(1.2189743 1.9687773e-15 0)
(1.2189743 -1.3135522e-15 0)
(1.2189743 -1.8835972e-15 0)
(1.2189743 -1.5467295e-16 0)
(1.2189743 -3.6468703e-17 0)
(1.2189743 -6.7209775e-16 0)
(1.2189743 2.107243e-15 0)
(1.2189743 6.5647034e-16 0)
(1.2189743 1.1842353e-15 0)
(1.2189743 2.0736029e-15 0)
(1.2189743 -1.8613729e-15 0)
(1.2189743 -1.8449416e-15 0)
(1.2189743 -1.4200652e-16 0)
(1.2189743 8.1139657e-16 0)
(1.2189743 4.2139967e-16 0)
(1.2189743 8.2825168e-16 0)
(1.2189743 -6.5007618e-16 0)
(1.2189743 2.8669461e-16 0)
(1.2189743 -2.3949421e-16 0)
(1.2189743 -3.7492013e-16 0)
(1.2189743 -1.1982392e-15 0)
(1.2189743 -1.2358712e-16 0)
(1.2189743 2.427368e-15 0)
(1.2189743 1.0468232e-15 0)
(1.2189743 -1.1378296e-15 0)
(1.2189743 -1.7547074e-15 0)
(1.2189743 -2.2860721e-16 0)
(1.2189743 -1.2456653e-15 0)
(1.2189743 2.4928247e-16 0)
(1.2189743 5.0383325e-17 0)
(1.2189743 1.7536418e-16 0)
(1.2189743 2.5600261e-15 0)
(1.2189743 2.0488633e-15 0)
(1.2189743 -7.7581539e-16 0)
(1.2189743 -3.8368353e-16 0)
(1.2189743 -6.0897498e-16 0)
(1.2189743 -1.4294117e-15 0)
(1.2189743 1.2702396e-15 0)
(1.2189743 3.224249e-16 0)
(1.2189743 1.0333361e-15 0)
(1.2189743 1.6878226e-15 0)
(1.2189743 1.7289891e-16 0)
(1.2189743 2.6203005e-16 0)
(1.2189743 6.9234351e-16 0)
(1.2189743 -6.4880073e-16 0)
(1.2189743 -1.0280642e-15 0)
(1.2189743 7.4384445e-17 0)
(1.2189743 1.5986053e-15 0)
(1.2189743 6.1011907e-16 0)
(1.2189743 -1.4705731e-15 0)
(1.2189743 4.9406476e-16 0)
(1.2189743 3.3167848e-16 0)
(1.2189743 -5.4643049e-16 0)
(1.2189743 5.3824724e-17 0)
(1.2189743 1.0353814e-16 0)
(1.2189743 -6.5294422e-17 0)
(1.2189743 1.7929602e-15 0)
(1.2189743 -9.3685656e-17 0)
(1.2189743 -2.4138247e-15 0)
(1.2189743 7.084724e-16 0)
(1.2189743 6.1546387e-16 0)
(1.2189743 -8.3830955e-16 0)
(1.2189743 -4.1808952e-16 0)
(1.2189743 -2.8939051e-16 0)
(1.2189743 1.1326534e-15 0)
(1.2189743 2.2256905e-15 0)
(1.2189743 9.0545967e-17 0)
(1.2189743 -6.3540784e-16 0)
(1.2189743 -2.9977794e-15 0)
(1.2189743 -2.0380967e-15 0)
(1.2189743 2.2414405e-15 0)
(1.2189743 -1.2546773e-15 0)
(1.2189743 1.5479881e-16 0)
(1.2189743 3.6493545e-15 0)
(1.2189743 -1.0253554e-15 0)
(1.2189743 -2.5375494e-15 0)
(1.2189743 -1.4559755e-15 0)
(1.2189743 -1.0321825e-15 0)
(1.2189743 7.4644891e-16 0)
(1.2189743 -1.0261127e-15 0)
(1.2189743 -3.4824225e-16 0)
(1.2189743 2.6736598e-15 0)
(1.2189743 1.0879309e-15 0)
(1.2189743 -4.9712606e-16 0)
(1.2189743 -1.7492155e-15 0)
(1.2189743 -3.1244887e-15 0)
(1.2189743 -7.8144152e-16 0)
(1.2189743 7.515153e-16 0)
(1.2189743 -2.6841818e-15 0)
(1.2189743 4.5409055e-16 0)
(1.2189743 3.8864104e-16 0)
(1.2189743 -2.9007272e-15 0)
(1.2189743 7.0469558e-16 0)
(1.2189743 -1.14627e-15 0)
(1.2189743 -3.1368504e-15 0)
(1.2189743 -1.0804211e-15 0)
(1.2189743 -1.4213306e-15 0)
(1.2189743 -1.0718213e-15 0)
(1.2189743 1.8030702e-15 0)
(1.2189743 -2.9159771e-15 0)
(1.2189743 -7.1259407e-15 0)
(1.2189743 -8.3240305e-15 0)
(1.2189743 -1.3606651e-14 0)
(1.2189743 -2.0913826e-14 0)
(1.6885655 -1.8764171e-14 0)
(1.6885655 -1.6348333e-14 0)
(1.6885655 -1.2654047e-14 0)
(1.6885655 -9.3009671e-15 0)
(1.6885655 -6.500376e-15 0)
(1.6885655 -4.544249e-15 0)
(1.6885655 -3.1559232e-15 0)
(1.6885655 -2.5817734e-15 0)
(1.6885655 -2.4329469e-15 0)
(1.6885655 -2.1232158e-15 0)
(1.6885655 -2.0347696e-15 0)
(1.6885655 -1.8911145e-15 0)
(1.6885655 -1.6714136e-15 0)
(1.6885655 -1.533125e-15 0)
(1.6885655 -1.8933853e-15 0)
(1.6885655 -2.2634051e-15 0)
(1.6885655 -2.375332e-15 0)
(1.6885655 -2.4899525e-15 0)
(1.6885655 -2.1007313e-15 0)
(1.6885655 -1.5909568e-15 0)
(1.6885655 -1.2324584e-15 0)
(1.6885655 -8.201088e-16 0)
(1.6885655 -3.8785263e-16 0)
(1.6885655 -2.5203341e-16 0)
(1.6885655 2.6029844e-16 0)
(1.6885655 8.7335116e-17 0)
(1.6885655 -2.1649231e-16 0)
(1.6885655 1.2671916e-16 0)
(1.6885655 -3.2639145e-16 0)
(1.6885655 -4.2203103e-16 0)
(1.6885655 -6.7894329e-17 0)
(1.6885655 3.5276657e-16 0)
(1.6885655 4.6155042e-16 0)
(1.6885655 3.1078858e-16 0)
(1.6885655 9.1176439e-17 0)
(1.6885655 2.5543723e-16 0)
(1.6885655 -3.5016088e-16 0)
(1.6885655 -8.5839617e-17 0)
(1.6885655 2.1379594e-16 0)
(1.6885655 -1.5801888e-16 0)
(1.6885655 -5.0891554e-17 0)
(1.6885655 -2.0233081e-16 0)
(1.6885655 -3.9144798e-16 0)
(1.6885655 -4.9386131e-16 0)
(1.6885655 2.2288863e-17 0)
(1.6885655 2.1932284e-16 0)
(1.6885655 -7.4491508e-17 0)
(1.6885655 -6.0527438e-16 0)
(1.6885655 -6.2938739e-16 0)
(1.6885655 -3.0069507e-16 0)
(1.6885655 -6.462545e-16 0)
(1.6885655 -1.6527672e-15 0)
(1.6885655 -2.1462123e-15 0)
(1.6885655 -9.7933094e-16 0)
(1.6885655 -6.0333288e-16 0)
(1.6885655 -8.276471e-16 0)
(1.6885655 -5.2036196e-17 0)
(1.6885655 1.4780258e-16 0)
(1.6885655 3.5896916e-16 0)
(1.6885655 4.4894569e-16 0)
(1.6885655 6.45273e-16 0)
(1.6885655 1.0362392e-15 0)
(1.6885655 9.5922049e-16 0)
(1.6885655 9.9378328e-16 0)
(1.6885655 9.949608e-16 0)
(1.6885655 8.2364305e-16 0)
(1.6885655 1.563802e-17 0)
(1.6885655 -2.3041613e-16 0)
(1.6885655 5.7951011e-16 0)
(1.6885655 4.7091348e-16 0)
(1.6885655 2.6675218e-16 0)
(1.6885655 6.6507345e-16 0)
(1.6885655 1.4804909e-15 0)
(1.6885655 5.4197664e-16 0)
(1.6885655 1.3250795e-16 0)
(1.6885655 2.0388032e-15 0)
(1.6885655 1.9702706e-15 0)
(1.6885655 8.8447514e-16 0)
(1.6885655 5.9544166e-16 0)
(1.6885655 1.5985635e-15 0)
(1.6885655 1.7610714e-15 0)
(1.6885655 1.0079859e-15 0)
(1.6885655 1.2986976e-15 0)
(1.6885655 8.3277025e-16 0)
(1.6885655 7.8272251e-16 0)
(1.6885655 1.3097337e-15 0)
(1.6885655 8.1194119e-16 0)
(1.6885655 6.1963211e-16 0)
(1.6885655 7.8290822e-16 0)
(1.6885655 1.5310701e-15 0)
(1.6885655 1.9949922e-15 0)
(1.6885655 1.0593104e-15 0)
(1.6885655 1.0924436e-15 0)
(1.6885655 8.774349e-16 0)
(1.6885655 -3.0103128e-17 0)
(1.6885655 -4.5083027e-16 0)
(1.6885655 8.1981724e-17 0)
(1.6885655 2.7230293e-16 0)
(1.6885655 -1.3556211e-15 0)
(1.6885655 -1.8769735e-15 0)
(1.6885655 -1.6683036e-16 0)
(1.6885655 3.2852125e-16 0)
(1.6885655 -5.0741162e-16 0)
(1.6885655 -1.4137325e-15 0)
(1.6885655 -1.4002892e-15 0)
(1.6885655 -1.5742229e-15 0)
(1.6885655 -1.8932079e-15 0)
(1.6885655 -1.3460689e-15 0)
(1.6885655 8.8558724e-16 0)
(1.6885655 9.2213955e-16 0)
(1.6885655 -2.5731262e-16 0)
(1.6885655 -4.2352005e-16 0)
(1.6885655 -1.2541032e-16 0)