/*--------------------------------*- C++ -*----------------------------------*\
| =========                 |                                                 |
| \\      /  F ield         | OpenFOAM: The Open Source CFD Toolbox           |
|  \\    /   O peration     | Version:  2406                                  |
|   \\  /    A nd           | Website:  www.openfoam.com                      |
|    \\/     M anipulation  |                                                 |
\*---------------------------------------------------------------------------*/
FoamFile
{
    version     2.0;
    format      ascii;
    arch        "LSB;label=32;scalar=64";
    class       volScalarField;
    location    "24.96";
    object      p;
}
// * * * * * * * * * * * * * * * * * * * * * * * * * * * * * * * * * * * * * //

dimensions      [0 2 -2 0 0 0 0];

internalField   nonuniform List<scalar> 
40000
(
4.8845e-09
1.18548e-05
2.23786e-05
3.09308e-05
3.81624e-05
4.41359e-05
4.86489e-05
5.149e-05
5.24515e-05
5.13026e-05
4.77814e-05
4.15949e-05
3.24184e-05
1.98938e-05
3.62751e-06
-1.68104e-05
-4.18875e-05
-7.21107e-05
-0.000108027
-0.000150223
-0.00019933
-0.00025602
-0.000321009
-0.000395055
-0.000478966
-0.000573592
-0.000679832
-0.000798633
-0.000930994
-0.00107796
-0.00124065
-0.00142022
-0.00161789
-0.00183496
-0.00207278
-0.0023328
-0.00261652
-0.00292554
-0.00326155
-0.00362631
-0.00402168
-0.00444963
-0.00491221
-0.00541154
-0.00594985
-0.00652944
-0.00715266
-0.0078219
-0.00853959
-0.00930816
-0.01013
-0.0110074
-0.0119427
-0.0129378
-0.0139947
-0.0151151
-0.0163002
-0.0175512
-0.0188685
-0.0202523
-0.0217023
-0.0232176
-0.0247968
-0.0264378
-0.028138
-0.029894
-0.0317021
-0.033558
-0.0354567
-0.0373932
-0.0393617
-0.0413565
-0.0433719
-0.0454018
-0.0474406
-0.0494827
-0.0515228
-0.053556
-0.0555777
-0.0575837
-0.0595702
-0.0615336
-0.0634706
-0.0653778
-0.0672521
-0.0690899
-0.0708875
-0.0726407
-0.0743447
-0.0759942
-0.077583
-0.0791041
-0.0805497
-0.0819113
-0.0831794
-0.0843438
-0.0853936
-0.0863172
-0.0871026
-0.0877373
-0.00124978
-0.0012336
-0.00121887
-0.00120644
-0.00119537
-0.00118556
-0.00117722
-0.00117058
-0.00116585
-0.00116325
-0.00116307
-0.00116559
-0.00117115
-0.00118011
-0.00119286
-0.00120985
-0.00123154
-0.00125845
-0.00129114
-0.00133019
-0.00137624
-0.00142997
-0.00149211
-0.00156341
-0.0016447
-0.00173683
-0.00184071
-0.00195727
-0.00208754
-0.00223254
-0.0023934
-0.00257127
-0.00276737
-0.00298298
-0.00321945
-0.00347819
-0.0037607
-0.00406854
-0.00440338
-0.00476694
-0.00516106
-0.00558766
-0.00604873
-0.00654638
-0.00708276
-0.00766014
-0.00828079
-0.00894709
-0.00966139
-0.0104261
-0.0112435
-0.0121159
-0.0130454
-0.0140342
-0.015084
-0.0161965
-0.017373
-0.0186145
-0.0199215
-0.0212942
-0.0227323
-0.0242349
-0.0258006
-0.0274273
-0.0291125
-0.0308531
-0.0326452
-0.0344846
-0.0363667
-0.0382864
-0.0402381
-0.0422163
-0.0442154
-0.0462295
-0.0482531
-0.0502808
-0.0523074
-0.0543282
-0.0563385
-0.0583344
-0.060312
-0.0622679
-0.0641986
-0.0661009
-0.0679714
-0.0698067
-0.0716029
-0.0733558
-0.0750605
-0.0767116
-0.0783027
-0.0798267
-0.0812759
-0.0826414
-0.0839137
-0.0850824
-0.0861366
-0.0870645
-0.0878539
-0.0884922
-0.00235344
-0.00233337
-0.00231486
-0.00229889
-0.00228433
-0.00227098
-0.00225909
-0.00224889
-0.0022406
-0.00223445
-0.00223071
-0.00222968
-0.00223169
-0.0022371
-0.00224633
-0.00225979
-0.00227799
-0.00230142
-0.00233065
-0.00236628
-0.00240894
-0.00245933
-0.00251817
-0.00258624
-0.00266434
-0.00275335
-0.00285417
-0.00296775
-0.00309511
-0.00323729
-0.00339539
-0.00357057
-0.00376404
-0.00397708
-0.00421101
-0.00446724
-0.00474725
-0.00505256
-0.00538482
-0.00574572
-0.00613705
-0.00656069
-0.0070186
-0.00751282
-0.00804549
-0.00861878
-0.00923495
-0.0098963
-0.0106051
-0.0113638
-0.0121746
-0.0130397
-0.0139614
-0.0149415
-0.015982
-0.0170843
-0.0182499
-0.0194797
-0.0207743
-0.0221338
-0.023558
-0.0250461
-0.0265966
-0.0282076
-0.0298767
-0.0316007
-0.0333761
-0.0351987
-0.0370641
-0.038967
-0.0409023
-0.0428646
-0.0448482
-0.0468476
-0.0488574
-0.0508721
-0.0528868
-0.0548968
-0.0568975
-0.058885
-0.0608554
-0.0628053
-0.0647312
-0.0666299
-0.0684979
-0.0703318
-0.0721276
-0.0738809
-0.0755869
-0.07724
-0.0788338
-0.080361
-0.0818138
-0.0831833
-0.0844598
-0.0856328
-0.0866913
-0.0876233
-0.0884166
-0.0890583
-0.00331399
-0.00329048
-0.0032686
-0.00324947
-0.00323175
-0.00321519
-0.00320005
-0.00318657
-0.00317497
-0.00316547
-0.00315835
-0.00315391
-0.00315248
-0.00315442
-0.00316013
-0.00317007
-0.00318469
-0.00320453
-0.00323015
-0.00326214
-0.00330115
-0.00334787
-0.00340303
-0.0034674
-0.00354182
-0.00362714
-0.00372429
-0.00383421
-0.00395791
-0.00409645
-0.00425092
-0.00442249
-0.00461235
-0.00482177
-0.00505208
-0.00530465
-0.00558094
-0.00588246
-0.00621082
-0.00656768
-0.0069548
-0.00737401
-0.00782724
-0.00831646
-0.00884376
-0.00941129
-0.0100212
-0.0106759
-0.0113774
-0.0121282
-0.0129304
-0.0137864
-0.0146981
-0.0156676
-0.0166967
-0.0177869
-0.0189396
-0.0201558
-0.0214361
-0.0227807
-0.0241894
-0.0256614
-0.0271953
-0.0287895
-0.0304414
-0.0321482
-0.0339061
-0.0357112
-0.0375606
-0.0394466
-0.0413658
-0.0433127
-0.0452818
-0.0472676
-0.0492646
-0.0512678
-0.0532721
-0.0552727
-0.0572654
-0.0592461
-0.0612108
-0.0631562
-0.0650788
-0.0669752
-0.0688419
-0.0706754
-0.0724716
-0.0742263
-0.0759342
-0.0775898
-0.0791867
-0.0807175
-0.0821742
-0.0835479
-0.0848287
-0.0860061
-0.0870688
-0.088005
-0.0888021
-0.0894471
-0.00413688
-0.00411038
-0.00408557
-0.00406365
-0.00404312
-0.00402369
-0.00400561
-0.00398914
-0.00397449
-0.00396188
-0.00395159
-0.00394391
-0.00393918
-0.00393775
-0.00394002
-0.00394644
-0.00395749
-0.00397368
-0.00399556
-0.00402375
-0.00405889
-0.00410167
-0.00415283
-0.00421313
-0.00428342
-0.00436456
-0.00445747
-0.0045631
-0.00468246
-0.00481662
-0.00496666
-0.00513375
-0.00531908
-0.00552391
-0.00574956
-0.00599738
-0.00626881
-0.00656536
-0.00688859
-0.00724013
-0.00762171
-0.00803511
-0.00848223
-0.00896499
-0.00948543
-0.0100456
-0.0106478
-0.011294
-0.0119866
-0.0127278
-0.0135198
-0.0143648
-0.0152648
-0.0162219
-0.0172378
-0.0183141
-0.0194522
-0.0206531
-0.0219175
-0.0232456
-0.0246372
-0.0260918
-0.027608
-0.0291842
-0.0308181
-0.0325069
-0.0342472
-0.036035
-0.0378663
-0.0397362
-0.0416399
-0.043572
-0.0455273
-0.0475003
-0.0494858
-0.0514786
-0.0534738
-0.0554666
-0.0574527
-0.0594279
-0.0613885
-0.0633308
-0.0652513
-0.0671466
-0.0690132
-0.0708474
-0.0726451
-0.0744018
-0.0761124
-0.0777712
-0.0793717
-0.0809065
-0.0823675
-0.0837457
-0.0850311
-0.0862131
-0.0872803
-0.0882207
-0.0890216
-0.08967
-0.00482944
-0.0048004
-0.00477306
-0.00474873
-0.00472574
-0.00470377
-0.00468308
-0.00466391
-0.00464649
-0.00463103
-0.0046178
-0.00460708
-0.00459921
-0.00459455
-0.00459349
-0.00459647
-0.00460396
-0.00461647
-0.00463457
-0.00465885
-0.00468997
-0.0047286
-0.00477548
-0.0048314
-0.00489718
-0.0049737
-0.00506187
-0.00516265
-0.00527706
-0.00540615
-0.00555102
-0.00571283
-0.00589277
-0.00609209
-0.0063121
-0.00655415
-0.00681966
-0.0071101
-0.00742702
-0.00777202
-0.0081468
-0.0085531
-0.00899276
-0.00946769
-0.00997985
-0.0105313
-0.0111241
-0.0117605
-0.0124426
-0.0131727
-0.0139528
-0.0147852
-0.0156719
-0.0166149
-0.017616
-0.0186768
-0.0197987
-0.0209827
-0.0222296
-0.0235397
-0.0249129
-0.0263487
-0.027846
-0.0294032
-0.0310182
-0.0326882
-0.0344101
-0.0361801
-0.0379942
-0.0398477
-0.041736
-0.0436537
-0.0455958
-0.0475568
-0.0495316
-0.0515151
-0.0535023
-0.0554885
-0.0574692
-0.0594404
-0.0613981
-0.0633386
-0.0652584
-0.0671539
-0.0690215
-0.0708575
-0.0726576
-0.0744173
-0.0761314
-0.0777941
-0.0793989
-0.0809383
-0.0824041
-0.0837872
-0.0850776
-0.0862645
-0.0873365
-0.0882814
-0.0890864
-0.0897382
-0.00540028
-0.00536913
-0.00533966
-0.00531329
-0.00528819
-0.00526401
-0.00524102
-0.00521947
-0.00519956
-0.00518151
-0.00516558
-0.00515205
-0.00514125
-0.00513352
-0.00512926
-0.0051289
-0.0051329
-0.00514177
-0.00515606
-0.00517638
-0.00520336
-0.00523769
-0.0052801
-0.00533138
-0.00539234
-0.00546386
-0.00554686
-0.0056423
-0.0057512
-0.00587462
-0.00601364
-0.00616943
-0.00634318
-0.00653614
-0.0067496
-0.0069849
-0.00724346
-0.00752672
-0.00783621
-0.00817352
-0.00854029
-0.00893825
-0.00936918
-0.00983495
-0.0103375
-0.0108788
-0.0114609
-0.012086
-0.0127562
-0.0134736
-0.0142403
-0.0150586
-0.0159305
-0.0168579
-0.0178426
-0.0188863
-0.0199904
-0.0211561
-0.022384
-0.0236747
-0.0250282
-0.026444
-0.0279212
-0.0294583
-0.0310534
-0.0327039
-0.0344068
-0.0361585
-0.0379551
-0.0397922
-0.041665
-0.0435686
-0.0454978
-0.0474475
-0.0494123
-0.0513874
-0.0533675
-0.0553482
-0.0573248
-0.0592931
-0.0612492
-0.0631892
-0.0651094
-0.0670063
-0.0688761
-0.0707149
-0.0725185
-0.0742822
-0.0760007
-0.0776683
-0.0792781
-0.0808228
-0.082294
-0.0836826
-0.0849786
-0.086171
-0.0872482
-0.0881979
-0.0890072
-0.0896627
-0.0058589
-0.00582603
-0.00579484
-0.00576675
-0.00573988
-0.00571382
-0.00568886
-0.00566522
-0.00564311
-0.00562275
-0.00560438
-0.00558827
-0.00557474
-0.00556414
-0.00555684
-0.00555327
-0.00555388
-0.00555918
-0.00556971
-0.00558605
-0.00560885
-0.00563878
-0.00567658
-0.00572301
-0.0057789
-0.00584512
-0.00592259
-0.00601227
-0.00611518
-0.00623236
-0.00636493
-0.00651403
-0.00668085
-0.00686665
-0.0070727
-0.00730035
-0.00755099
-0.00782605
-0.00812705
-0.00845554
-0.00881315
-0.00920156
-0.00962253
-0.0100779
-0.0105695
-0.0110993
-0.0116694
-0.0122818
-0.0129386
-0.0136419
-0.0143939
-0.0151966
-0.0160521
-0.0169624
-0.0179293
-0.0189544
-0.0200393
-0.0211851
-0.0223927
-0.0236626
-0.024995
-0.0263895
-0.0278454
-0.0293613
-0.0309355
-0.0325656
-0.0342487
-0.0359815
-0.0377601
-0.0395804
-0.0414377
-0.0433272
-0.0452438
-0.0471824
-0.0491379
-0.0511051
-0.0530791
-0.0550551
-0.0570286
-0.0589952
-0.0609507
-0.0628914
-0.0648134
-0.0667129
-0.0685861
-0.0704289
-0.0722371
-0.0740058
-0.0757298
-0.077403
-0.0790188
-0.0805696
-0.0820471
-0.083442
-0.0847441
-0.0859425
-0.0870255
-0.0879805
-0.0887946
-0.0894542
-0.00621521
-0.00618102
-0.00614845
-0.006119
-0.00609067
-0.00606305
-0.00603641
-0.00601099
-0.00598697
-0.00596457
-0.00594401
-0.00592557
-0.00590955
-0.00589628
-0.00588613
-0.00587952
-0.00587688
-0.00587871
-0.00588554
-0.00589795
-0.00591657
-0.00594206
-0.00597515
-0.00601661
-0.00606724
-0.00612793
-0.00619957
-0.00628314
-0.00637963
-0.00649012
-0.00661569
-0.00675749
-0.00691673
-0.00709463
-0.00729248
-0.00751162
-0.00775343
-0.00801933
-0.00831081
-0.00862942
-0.00897674
-0.00935445
-0.00976425
-0.0102079
-0.0106874
-0.0112045
-0.0117612
-0.0123595
-0.0130015
-0.0136894
-0.0144251
-0.0152109
-0.0160486
-0.0169403
-0.0178879
-0.018893
-0.0199571
-0.0210816
-0.0222674
-0.023515
-0.0248249
-0.0261968
-0.0276301
-0.0291237
-0.0306758
-0.0322845
-0.0339469
-0.03566
-0.0374201
-0.0392231
-0.0410646
-0.0429398
-0.0448438
-0.0467716
-0.048718
-0.050678
-0.0526464
-0.0546185
-0.0565897
-0.0585555
-0.0605116
-0.0624541
-0.0643789
-0.0662822
-0.06816
-0.070008
-0.071822
-0.0735969
-0.0753274
-0.0770075
-0.0786303
-0.0801882
-0.0816728
-0.0830748
-0.0843839
-0.0855891
-0.0866785
-0.0876395
-0.0884588
-0.0891229
-0.00647932
-0.00644414
-0.00641054
-0.00638003
-0.00635055
-0.00632167
-0.00629366
-0.00626674
-0.0062411
-0.00621693
-0.00619445
-0.00617393
-0.00615565
-0.00613993
-0.00612714
-0.00611766
-0.00611194
-0.00611044
-0.00611368
-0.00612224
-0.00613672
-0.00615779
-0.00618615
-0.00622255
-0.00626781
-0.00632279
-0.00638838
-0.00646555
-0.0065553
-0.00665868
-0.00677678
-0.00691077
-0.00706181
-0.00723116
-0.00742009
-0.00762993
-0.00786205
-0.00811788
-0.00839888
-0.00870657
-0.00904254
-0.00940842
-0.0098059
-0.0102367
-0.0107027
-0.0112058
-0.0117478
-0.0123308
-0.0129567
-0.0136277
-0.0143458
-0.0151131
-0.0159317
-0.0168034
-0.0177301
-0.0187137
-0.0197557
-0.0208573
-0.0220198
-0.0232438
-0.0245297
-0.0258776
-0.0272869
-0.0287568
-0.0302857
-0.0318718
-0.0335126
-0.035205
-0.0369457
-0.0387307
-0.0405559
-0.0424165
-0.0443077
-0.0462246
-0.0481621
-0.050115
-0.0520783
-0.0540471
-0.0560168
-0.0579826
-0.0599403
-0.0618856
-0.0638144
-0.0657227
-0.0676062
-0.0694608
-0.0712818
-0.0730642
-0.0748024
-0.0764905
-0.0781214
-0.0796875
-0.0811803
-0.0825904
-0.0839074
-0.0851202
-0.0862168
-0.0871844
-0.0880097
-0.0886787
-0.00666115
-0.00662532
-0.00659101
-0.00655973
-0.00652938
-0.00649953
-0.00647042
-0.00644229
-0.00641529
-0.00638962
-0.00636548
-0.00634313
-0.00632284
-0.00630491
-0.00628969
-0.00627756
-0.00626893
-0.00626427
-0.00626407
-0.0062689
-0.00627934
-0.00629603
-0.00631968
-0.00635102
-0.00639084
-0.00644
-0.00649939
-0.00656996
-0.00665269
-0.00674864
-0.0068589
-0.0069846
-0.00712695
-0.00728716
-0.00746651
-0.00766633
-0.00788798
-0.00813288
-0.00840248
-0.00869829
-0.00902188
-0.00937485
-0.00975888
-0.0101757
-0.010627
-0.0111148
-0.0116408
-0.0122071
-0.0128157
-0.0134684
-0.0141676
-0.014915
-0.0157129
-0.0165631
-0.0174676
-0.0184282
-0.0194464
-0.0205238
-0.0216614
-0.0228602
-0.0241208
-0.0254431
-0.026827
-0.0282718
-0.0297762
-0.0313384
-0.0329562
-0.0346269
-0.0363472
-0.0381135
-0.0399215
-0.0417669
-0.0436449
-0.0455507
-0.0474791
-0.0494251
-0.0513836
-0.0533495
-0.0553182
-0.0572848
-0.0592449
-0.061194
-0.0631279
-0.0650423
-0.0669329
-0.0687953
-0.0706246
-0.0724157
-0.0741631
-0.0758604
-0.0775007
-0.0790762
-0.0805784
-0.0819976
-0.0833236
-0.0845449
-0.0856496
-0.0866247
-0.0874567
-0.0881313
-0.00677037
-0.00673419
-0.00669944
-0.00666765
-0.00663671
-0.00660614
-0.00657621
-0.00654712
-0.00651903
-0.00649212
-0.00646658
-0.00644265
-0.00642059
-0.00640069
-0.00638327
-0.0063687
-0.00635738
-0.00634974
-0.00634628
-0.00634752
-0.00635405
-0.00636648
-0.00638548
-0.0064118
-0.00644619
-0.00648949
-0.00654259
-0.00660641
-0.00668194
-0.00677022
-0.00687232
-0.00698938
-0.00712258
-0.00727315
-0.00744235
-0.00763151
-0.00784198
-0.00807516
-0.00833252
-0.00861554
-0.00892577
-0.0092648
-0.00963428
-0.0100359
-0.0104714
-0.0109427
-0.0114515
-0.0119998
-0.0125896
-0.0132228
-0.0139015
-0.0146277
-0.0154035
-0.0162308
-0.0171115
-0.0180476
-0.0190406
-0.0200921
-0.0212034
-0.0223754
-0.0236089
-0.0249042
-0.0262612
-0.0276794
-0.0291577
-0.0306946
-0.0322882
-0.0339359
-0.0356347
-0.0373811
-0.0391711
-0.0410005
-0.0428647
-0.0447589
-0.046678
-0.0486169
-0.0505706
-0.052534
-0.0545021
-0.0564702
-0.0584334
-0.0603873
-0.0623273
-0.0642489
-0.0661478
-0.0680192
-0.0698581
-0.0716594
-0.0734172
-0.0751252
-0.0767762
-0.0783625
-0.0798753
-0.0813049
-0.082641
-0.083872
-0.0849858
-0.0859693
-0.0868087
-0.0874898
-0.00681615
-0.00677987
-0.00674495
-0.0067129
-0.0066816
-0.00665057
-0.00662005
-0.00659026
-0.00656133
-0.00653342
-0.00650673
-0.00648147
-0.00645788
-0.00643624
-0.00641686
-0.00640008
-0.00638629
-0.00637589
-0.00636936
-0.0063672
-0.00636998
-0.00637828
-0.00639277
-0.00641414
-0.00644316
-0.00648063
-0.00652741
-0.00658443
-0.00665264
-0.00673307
-0.00682678
-0.00693491
-0.00705862
-0.00719912
-0.00735769
-0.00753562
-0.00773428
-0.00795505
-0.00819939
-0.00846877
-0.00876473
-0.00908885
-0.00944274
-0.00982811
-0.0102467
-0.0107002
-0.0111905
-0.0117196
-0.0122892
-0.0129015
-0.0135584
-0.014262
-0.0150142
-0.0158171
-0.0166726
-0.0175826
-0.0185489
-0.019573
-0.0206563
-0.0218
-0.0230048
-0.0242715
-0.0255999
-0.0269898
-0.0284405
-0.0299507
-0.0315185
-0.0331418
-0.0348177
-0.036543
-0.0383139
-0.0401264
-0.041976
-0.0438579
-0.0457672
-0.0476988
-0.0496476
-0.0516085
-0.0535764
-0.0555463
-0.0575133
-0.0594727
-0.0614198
-0.0633499
-0.0652582
-0.0671399
-0.0689899
-0.0708028
-0.0725725
-0.0742926
-0.0759558
-0.0775543
-0.079079
-0.0805204
-0.0818678
-0.0831097
-0.0842337
-0.0852266
-0.0860744
-0.0867627
-0.00680709
-0.00677095
-0.00673609
-0.00670401
-0.00667256
-0.00664129
-0.00661042
-0.00658015
-0.00655061
-0.00652195
-0.00649434
-0.00646798
-0.00644311
-0.00641998
-0.00639887
-0.00638012
-0.00636407
-0.00635114
-0.00634176
-0.00633641
-0.00633562
-0.00633998
-0.0063501
-0.00636667
-0.00639042
-0.00642213
-0.00646264
-0.00651285
-0.0065737
-0.0066462
-0.00673138
-0.00683038
-0.00694432
-0.00707443
-0.00722196
-0.0073882
-0.0075745
-0.00778224
-0.00801286
-0.00826783
-0.00854868
-0.00885697
-0.00919431
-0.00956236
-0.00996283
-0.0103975
-0.0108681
-0.0113766
-0.0119249
-0.0125149
-0.0131487
-0.0138281
-0.0145554
-0.0153324
-0.0161611
-0.0170435
-0.0179814
-0.0189765
-0.0200302
-0.0211439
-0.0223185
-0.0235548
-0.024853
-0.0262131
-0.0276345
-0.0291162
-0.0306567
-0.032254
-0.0339056
-0.0356085
-0.037359
-0.0391534
-0.0409873
-0.0428561
-0.044755
-0.0466788
-0.0486225
-0.0505809
-0.0525486
-0.0545208
-0.0564921
-0.0584578
-0.0604128
-0.0623523
-0.0642713
-0.0661647
-0.0680272
-0.069853
-0.0716362
-0.0733699
-0.0750469
-0.0766589
-0.0781972
-0.0796517
-0.0810118
-0.0822659
-0.0834013
-0.0844047
-0.0852619
-0.0859583
-0.00675116
-0.00671537
-0.00668078
-0.00664885
-0.00661746
-0.00658616
-0.00655514
-0.00652461
-0.00649467
-0.00646548
-0.00643717
-0.00640995
-0.00638403
-0.00635963
-0.00633704
-0.00631654
-0.00629849
-0.00628325
-0.00627125
-0.00626293
-0.0062588
-0.00625941
-0.00626536
-0.0062773
-0.00629594
-0.00632202
-0.00635636
-0.00639983
-0.00645335
-0.00651789
-0.00659448
-0.00668422
-0.00678823
-0.00690771
-0.00704388
-0.00719805
-0.00737153
-0.00756571
-0.00778201
-0.00802189
-0.00828686
-0.00857848
-0.00889835
-0.0092481
-0.00962944
-0.0100441
-0.0104939
-0.0109806
-0.0115063
-0.0120727
-0.0126818
-0.0133358
-0.0140366
-0.0147862
-0.0155867
-0.01644
-0.017348
-0.0183124
-0.0193349
-0.0204169
-0.0215596
-0.0227638
-0.02403
-0.0253585
-0.0267488
-0.0282004
-0.0297119
-0.0312817
-0.0329073
-0.0345862
-0.036315
-0.03809
-0.0399072
-0.0417619
-0.0436495
-0.0455649
-0.047503
-0.0494586
-0.0514262
-0.0534008
-0.0553769
-0.0573495
-0.0593133
-0.0612632
-0.063194
-0.0651004
-0.0669767
-0.068817
-0.0706151
-0.0723641
-0.0740563
-0.0756837
-0.0772369
-0.0787061
-0.0800804
-0.0813479
-0.082496
-0.0835111
-0.0843789
-0.0850843
-0.00665565
-0.0066204
-0.00658626
-0.00655465
-0.0065235
-0.00649234
-0.00646137
-0.00643077
-0.00640064
-0.00637111
-0.00634233
-0.00631446
-0.0062877
-0.00626227
-0.00623842
-0.00621642
-0.0061966
-0.0061793
-0.00616491
-0.00615386
-0.00614662
-0.00614372
-0.00614572
-0.00615324
-0.00616696
-0.00618758
-0.00621591
-0.00625276
-0.00629903
-0.00635567
-0.00642368
-0.00650412
-0.0065981
-0.00670679
-0.0068314
-0.00697321
-0.00713352
-0.0073137
-0.00751516
-0.00773936
-0.00798778
-0.00826198
-0.00856353
-0.00889407
-0.00925529
-0.00964891
-0.0100767
-0.0105405
-0.0110422
-0.0115837
-0.012167
-0.0127941
-0.013467
-0.0141878
-0.0149584
-0.015781
-0.0166575
-0.0175897
-0.0185793
-0.019628
-0.020737
-0.0219073
-0.0231399
-0.0244349
-0.0257925
-0.0272121
-0.0286929
-0.0302333
-0.0318314
-0.0334847
-0.0351902
-0.0369444
-0.0387435
-0.040583
-0.0424584
-0.0443646
-0.0462966
-0.048249
-0.0502164
-0.0521934
-0.0541746
-0.0561546
-0.0581279
-0.0600892
-0.0620329
-0.0639534
-0.065845
-0.0677013
-0.0695159
-0.0712817
-0.0729909
-0.0746351
-0.076205
-0.0776904
-0.0790804
-0.0803629
-0.081525
-0.0825531
-0.0834325
-0.084148
-0.00652718
-0.00649261
-0.00645908
-0.00642795
-0.00639719
-0.00636634
-0.00633558
-0.00630509
-0.00627495
-0.00624528
-0.00621622
-0.0061879
-0.00616052
-0.00613427
-0.00610939
-0.00608612
-0.00606476
-0.00604564
-0.00602911
-0.00601558
-0.00600548
-0.00599932
-0.00599761
-0.00600095
-0.00600997
-0.00602535
-0.00604785
-0.00607826
-0.00611744
-0.0061663
-0.0062258
-0.00629698
-0.00638092
-0.00647875
-0.00659167
-0.00672092
-0.0068678
-0.00703365
-0.00721986
-0.00742786
-0.00765916
-0.00791526
-0.00819776
-0.00850826
-0.00884844
-0.00922002
-0.00962476
-0.0100645
-0.0105411
-0.0110564
-0.0116125
-0.0122113
-0.0128549
-0.0135454
-0.0142848
-0.0150751
-0.0159185
-0.0168168
-0.0177719
-0.0187855
-0.0198591
-0.0209939
-0.022191
-0.0234508
-0.0247738
-0.0261597
-0.0276079
-0.0291172
-0.030686
-0.032312
-0.0339926
-0.0357246
-0.0375042
-0.0393273
-0.0411893
-0.0430854
-0.0450105
-0.0469592
-0.0489261
-0.0509056
-0.0528921
-0.0548798
-0.0568633
-0.0588368
-0.0607944
-0.0627303
-0.0646384
-0.0665122
-0.0683449
-0.0701291
-0.0718569
-0.0735197
-0.0751078
-0.0766112
-0.0780184
-0.0793173
-0.0804949
-0.0815373
-0.0824296
-0.0831563
-0.00637167
-0.00633792
-0.00630512
-0.00627461
-0.00624437
-0.00621397
-0.00618358
-0.00615335
-0.00612337
-0.00609374
-0.00606457
-0.006036
-0.0060082
-0.00598134
-0.00595564
-0.00593132
-0.00590866
-0.00588795
-0.00586953
-0.00585377
-0.00584107
-0.0058319
-0.00582674
-0.00582616
-0.00583074
-0.00584113
-0.00585804
-0.00588223
-0.00591451
-0.00595576
-0.0060069
-0.00606892
-0.00614288
-0.00622987
-0.00633106
-0.00644766
-0.00658093
-0.0067322
-0.00690284
-0.00709426
-0.00730794
-0.00754538
-0.00780816
-0.00809788
-0.00841619
-0.00876482
-0.00914551
-0.00956008
-0.0100104
-0.0104984
-0.0110259
-0.0115952
-0.0122081
-0.0128668
-0.0135734
-0.0143301
-0.0151388
-0.0160016
-0.0169206
-0.0178974
-0.0189339
-0.0200314
-0.0211912
-0.0224141
-0.0237007
-0.025051
-0.0264648
-0.0279412
-0.0294789
-0.0310759
-0.03273
-0.0344381
-0.0361967
-0.038002
-0.0398495
-0.0417345
-0.0436519
-0.0455963
-0.0475623
-0.049544
-0.0515358
-0.0535317
-0.0555258
-0.0575122
-0.0594847
-0.0614371
-0.063363
-0.0652557
-0.067108
-0.0689123
-0.0706604
-0.0723434
-0.0739515
-0.0754744
-0.0769005
-0.0782174
-0.079412
-0.08047
-0.0813765
-0.0821156
-0.00619439
-0.00616157
-0.00612962
-0.00609983
-0.00607024
-0.00604042
-0.00601052
-0.0059807
-0.00595102
-0.00592158
-0.00589247
-0.00586383
-0.00583578
-0.00580851
-0.0057822
-0.00575705
-0.00573331
-0.00571126
-0.00569119
-0.00567344
-0.00565841
-0.00564649
-0.00563816
-0.00563392
-0.00563434
-0.00564001
-0.0056516
-0.00566982
-0.00569545
-0.00572931
-0.00577229
-0.00582533
-0.00588943
-0.00596567
-0.00605517
-0.00615909
-0.00627868
-0.00641522
-0.00657007
-0.0067446
-0.00694028
-0.0071586
-0.0074011
-0.00766938
-0.00796509
-0.00828993
-0.00864566
-0.00903407
-0.00945703
-0.00991647
-0.0104143
-0.0109527
-0.0115336
-0.0121592
-0.0128316
-0.0135529
-0.0143255
-0.0151513
-0.0160324
-0.0169709
-0.0179686
-0.0190271
-0.0201479
-0.0213321
-0.0225804
-0.0238934
-0.025271
-0.0267127
-0.0282175
-0.0297838
-0.0314096
-0.0330922
-0.0348284
-0.0366144
-0.0384461
-0.0403189
-0.0422276
-0.044167
-0.0461315
-0.0481152
-0.0501122
-0.0521164
-0.0541216
-0.0561215
-0.0581098
-0.0600798
-0.0620248
-0.0639377
-0.0658111
-0.067637
-0.069407
-0.071112
-0.0727418
-0.0742859
-0.0757325
-0.077069
-0.0782821
-0.0793572
-0.0802791
-0.0810319
-0.00599997
-0.00596818
-0.00593717
-0.0059082
-0.00587936
-0.00585022
-0.00582094
-0.00579165
-0.00576241
-0.00573329
-0.0057044
-0.00567584
-0.00564773
-0.00562022
-0.00559349
-0.00556771
-0.00554311
-0.00551994
-0.00549846
-0.00547899
-0.00546187
-0.00544748
-0.00543625
-0.00542865
-0.00542519
-0.00542643
-0.00543299
-0.00544553
-0.00546478
-0.00549151
-0.00552657
-0.00557085
-0.0056253
-0.00569094
-0.00576885
-0.00586017
-0.00596608
-0.00608784
-0.00622676
-0.00638421
-0.0065616
-0.00676041
-0.00698217
-0.00722847
-0.00750093
-0.00780125
-0.00813117
-0.00849251
-0.00888713
-0.00931695
-0.00978396
-0.0102902
-0.0108378
-0.0114289
-0.0120656
-0.0127503
-0.0134852
-0.0142724
-0.0151142
-0.0160127
-0.01697
-0.0179878
-0.0190679
-0.0202116
-0.02142
-0.0226938
-0.0240334
-0.0254386
-0.0269088
-0.0284426
-0.0300385
-0.0316939
-0.0334061
-0.0351714
-0.036986
-0.0388453
-0.0407444
-0.042678
-0.0446404
-0.0466257
-0.0486278
-0.0506403
-0.0526569
-0.0546709
-0.0566756
-0.0586641
-0.0606293
-0.0625638
-0.0644597
-0.0663089
-0.0681024
-0.0698309
-0.0714842
-0.0730511
-0.0745199
-0.0758777
-0.0771107
-0.0782044
-0.0791431
-0.0799108
-0.00579248
-0.00576178
-0.0057318
-0.00570372
-0.00567571
-0.00564735
-0.00561878
-0.00559013
-0.00556145
-0.00553279
-0.00550425
-0.00547591
-0.0054479
-0.00542032
-0.00539335
-0.00536714
-0.00534188
-0.0053178
-0.00529514
-0.00527419
-0.00525524
-0.00523865
-0.00522481
-0.00521413
-0.00520709
-0.0052042
-0.00520603
-0.0052132
-0.00522637
-0.00524628
-0.0052737
-0.00530948
-0.00535452
-0.00540978
-0.00547628
-0.00555512
-0.00564744
-0.00575444
-0.0058774
-0.00601764
-0.00617656
-0.0063556
-0.00655626
-0.0067801
-0.00702877
-0.00730392
-0.00760731
-0.00794075
-0.0083061
-0.00870531
-0.00914037
-0.00961335
-0.0101264
-0.0106817
-0.0112815
-0.0119281
-0.0126238
-0.013371
-0.0141719
-0.0150289
-0.0159441
-0.0169197
-0.0179574
-0.0190589
-0.0202257
-0.0214587
-0.0227586
-0.0241256
-0.0255594
-0.0270591
-0.0286233
-0.03025
-0.0319365
-0.0336798
-0.0354759
-0.0373205
-0.0392089
-0.0411357
-0.0430953
-0.0450817
-0.0470886
-0.0491095
-0.0511376
-0.0531661
-0.055188
-0.0571959
-0.0591823
-0.0611395
-0.0630594
-0.0649332
-0.0667518
-0.0685056
-0.0701838
-0.0717753
-0.0732679
-0.0746485
-0.075903
-0.0770167
-0.0779737
-0.0787576
-0.00557542
-0.00554587
-0.00551698
-0.00548986
-0.00546275
-0.00543525
-0.00540748
-0.00537956
-0.00535154
-0.00532345
-0.00529538
-0.00526741
-0.00523962
-0.00521214
-0.00518509
-0.00515862
-0.00513291
-0.00510813
-0.00508452
-0.00506231
-0.00504179
-0.00502326
-0.00500707
-0.0049936
-0.00498328
-0.00497657
-0.00497399
-0.00497611
-0.00498353
-0.00499693
-0.00501703
-0.00504461
-0.00508052
-0.00512566
-0.00518099
-0.00524754
-0.00532641
-0.00541875
-0.00552579
-0.0056488
-0.00578914
-0.00594822
-0.00612751
-0.00632856
-0.00655297
-0.00680242
-0.00707864
-0.00738344
-0.0077187
-0.00808637
-0.00848847
-0.0089271
-0.00940444
-0.00992273
-0.0104843
-0.0110915
-0.0117467
-0.0124524
-0.013211
-0.014025
-0.0148967
-0.0158284
-0.0168222
-0.01788
-0.0190036
-0.0201941
-0.0214527
-0.0227798
-0.0241756
-0.0256395
-0.0271704
-0.0287668
-0.0304262
-0.0321458
-0.0339221
-0.0357509
-0.0376274
-0.0395466
-0.0415026
-0.0434895
-0.0455008
-0.0475299
-0.0495697
-0.051613
-0.0536525
-0.0556805
-0.0576892
-0.0596702
-0.0616152
-0.0635151
-0.0653603
-0.0671408
-0.0688457
-0.0704634
-0.0719814
-0.0733864
-0.074664
-0.0757992
-0.0767758
-0.0775771
-0.00535179
-0.00532345
-0.00529569
-0.00526959
-0.00524344
-0.00521686
-0.00518997
-0.00516286
-0.00513558
-0.00510817
-0.00508068
-0.00505319
-0.00502577
-0.00499852
-0.00497155
-0.00494499
-0.00491899
-0.00489371
-0.00486935
-0.00484612
-0.00482426
-0.00480404
-0.00478578
-0.00476981
-0.0047565
-0.00474629
-0.00473962
-0.00473701
-0.00473901
-0.00474624
-0.00475935
-0.00477906
-0.00480616
-0.00484147
-0.0048859
-0.00494041
-0.00500604
-0.00508389
-0.00517511
-0.00528093
-0.00540267
-0.0055417
-0.00569945
-0.00587743
-0.00607724
-0.00630053
-0.00654903
-0.00682456
-0.00712899
-0.0074643
-0.00783254
-0.00823583
-0.0086764
-0.00915655
-0.00967866
-0.0102452
-0.0108586
-0.0115215
-0.0122364
-0.013006
-0.0138328
-0.0147192
-0.0156676
-0.0166802
-0.017759
-0.0189055
-0.0201212
-0.021407
-0.0227632
-0.0241897
-0.0256858
-0.0272503
-0.0288812
-0.0305758
-0.0323309
-0.0341426
-0.0360062
-0.0379167
-0.0398684
-0.0418551
-0.0438705
-0.0459075
-0.0479589
-0.0500173
-0.0520748
-0.0541236
-0.0561552
-0.0581612
-0.0601324
-0.0620597
-0.0639329
-0.0657417
-0.0674747
-0.0691201
-0.0706651
-0.072096
-0.0733982
-0.0745563
-0.0755539
-0.076374
-0.00512417
-0.00509706
-0.00507048
-0.00504543
-0.00502029
-0.00499469
-0.00496874
-0.00494252
-0.00491606
-0.0048894
-0.00486259
-0.00483568
-0.00480874
-0.00478186
-0.00475511
-0.00472862
-0.00470251
-0.00467691
-0.004652
-0.00462795
-0.00460498
-0.00458333
-0.00456325
-0.00454505
-0.00452905
-0.00451563
-0.00450519
-0.00449818
-0.0044951
-0.0044965
-0.00450296
-0.00451515
-0.00453377
-0.00455958
-0.00459342
-0.00463618
-0.00468882
-0.00475237
-0.00482794
-0.0049167
-0.0050199
-0.00513885
-0.00527496
-0.00542971
-0.00560466
-0.00580143
-0.00602177
-0.00626748
-0.00654045
-0.00684267
-0.00717622
-0.00754328
-0.00794611
-0.00838707
-0.00886862
-0.0093933
-0.00996371
-0.0105825
-0.0112525
-0.0119764
-0.0127568
-0.0135966
-0.0144983
-0.0154643
-0.0164969
-0.0175981
-0.0187695
-0.0200124
-0.0213276
-0.0227153
-0.0241753
-0.0257065
-0.0273075
-0.0289757
-0.0307084
-0.0325017
-0.0343513
-0.0362521
-0.0381986
-0.0401846
-0.0422034
-0.0442481
-0.046311
-0.0483845
-0.0504604
-0.0525304
-0.0545857
-0.0566174
-0.058616
-0.0605718
-0.0624743
-0.0643127
-0.0660754
-0.06775
-0.0693235
-0.0707818
-0.07211
-0.0732925
-0.0743125
-0.0751526
-0.0048947
-0.00486885
-0.00484347
-0.00481951
-0.00479542
-0.00477084
-0.00474588
-0.0047206
-0.00469504
-0.00466922
-0.00464317
-0.00461694
-0.00459059
-0.00456419
-0.0045378
-0.00451151
-0.00448544
-0.00445969
-0.00443441
-0.00440975
-0.00438589
-0.00436303
-0.00434138
-0.00432122
-0.00430281
-0.00428648
-0.00427257
-0.00426149
-0.00425367
-0.00424957
-0.00424974
-0.00425475
-0.00426524
-0.00428189
-0.00430547
-0.00433678
-0.00437672
-0.00442625
-0.00448638
-0.00455824
-0.004643
-0.00474193
-0.00485639
-0.0049878
-0.00513771
-0.00530771
-0.00549953
-0.00571498
-0.00595595
-0.00622445
-0.00652261
-0.00685263
-0.00721684
-0.00761766
-0.00805765
-0.00853942
-0.00906572
-0.00963934
-0.0102632
-0.0109401
-0.0116731
-0.012465
-0.0133187
-0.0142368
-0.015222
-0.0162765
-0.0174024
-0.0186012
-0.019874
-0.0212217
-0.0226441
-0.0241408
-0.0257105
-0.0273512
-0.0290602
-0.030834
-0.0326685
-0.0345588
-0.0364992
-0.0384837
-0.0405055
-0.0425574
-0.0446316
-0.0467202
-0.0488147
-0.0509063
-0.0529859
-0.0550441
-0.057071
-0.0590563
-0.0609893
-0.0628586
-0.0646522
-0.0663575
-0.0679608
-0.069448
-0.0708037
-0.0720119
-0.0730556
-0.073917
-0.00466516
-0.00464059
-0.00461644
-0.00459359
-0.00457059
-0.00454707
-0.00452314
-0.00449887
-0.00447426
-0.00444934
-0.00442413
-0.00439867
-0.004373
-0.00434718
-0.00432126
-0.00429532
-0.00426943
-0.00424369
-0.00421822
-0.00419313
-0.00416858
-0.00414472
-0.00412175
-0.00409987
-0.00407931
-0.00406035
-0.00404329
-0.00402844
-0.00401619
-0.00400695
-0.00400117
-0.00399935
-0.00400206
-0.0040099
-0.00402356
-0.00404376
-0.0040713
-0.00410708
-0.00415203
-0.00420719
-0.00427368
-0.0043527
-0.00444555
-0.0045536
-0.00467836
-0.00482142
-0.00498445
-0.00516928
-0.00537781
-0.00561207
-0.00587421
-0.0061665
-0.00649131
-0.00685117
-0.00724868