/*--------------------------------*- C++ -*----------------------------------*\
| =========                 |                                                 |
| \\      /  F ield         | OpenFOAM: The Open Source CFD Toolbox           |
|  \\    /   O peration     | Version:  2406                                  |
|   \\  /    A nd           | Website:  www.openfoam.com                      |
|    \\/     M anipulation  |                                                 |
\*---------------------------------------------------------------------------*/
FoamFile
{
    version     2.0;
    format      ascii;
    arch        "LSB;label=32;scalar=64";
    class       surfaceScalarField;
    location    "24.96";
    object      phi;
}
// * * * * * * * * * * * * * * * * * * * * * * * * * * * * * * * * * * * * * //

dimensions      [0 3 -1 0 0 0 0];

oriented        oriented;

internalField   nonuniform List<scalar> 
79600
(
4.69622e-09
2.82699e-07
-2.87395e-07
1.82673e-08
8.64271e-07
-8.77842e-07
4.0318e-08
1.47563e-06
-1.49768e-06
7.03578e-08
2.11751e-06
-2.14755e-06
1.07794e-07
2.79059e-06
-2.82803e-06
1.51926e-07
3.49551e-06
-3.53964e-06
2.01943e-07
4.23283e-06
-4.28285e-06
2.56917e-07
5.00309e-06
-5.05806e-06
3.15805e-07
5.80671e-06
-5.8656e-06
3.77444e-07
6.64408e-06
-6.70572e-06
4.40553e-07
7.51548e-06
-7.57859e-06
5.03736e-07
8.42112e-06
-8.4843e-06
5.65485e-07
9.36111e-06
-9.42286e-06
6.24184e-07
1.03355e-05
-1.03942e-05
6.7812e-07
1.13442e-05
-1.13981e-05
7.25492e-07
1.2387e-05
-1.24344e-05
7.64425e-07
1.34637e-05
-1.35027e-05
7.92983e-07
1.45741e-05
-1.46026e-05
8.09191e-07
1.57176e-05
-1.57338e-05
8.11054e-07
1.6894e-05
-1.68958e-05
7.96578e-07
1.81026e-05
-1.80881e-05
7.63798e-07
1.9343e-05
-1.93102e-05
7.10804e-07
2.06147e-05
-2.05617e-05
6.35769e-07
2.19172e-05
-2.18422e-05
5.36979e-07
2.32502e-05
-2.31514e-05
4.12862e-07
2.46132e-05
-2.44891e-05
2.62015e-07
2.60061e-05
-2.58552e-05
8.32351e-08
2.74287e-05
-2.72499e-05
-1.24458e-07
2.88812e-05
-2.86735e-05
-3.61799e-07
3.03639e-05
-3.01266e-05
-6.29262e-07
3.18773e-05
-3.16098e-05
-9.2704e-07
3.3422e-05
-3.31242e-05
-1.25505e-06
3.49991e-05
-3.46711e-05
-1.61291e-06
3.66099e-05
-3.6252e-05
-1.99998e-06
3.82556e-05
-3.78686e-05
-2.41532e-06
3.99381e-05
-3.95227e-05
-2.85778e-06
4.1659e-05
-4.12165e-05
-3.32595e-06
4.34203e-05
-4.29521e-05
-3.81823e-06
4.5224e-05
-4.47317e-05
-4.33287e-06
4.7072e-05
-4.65574e-05
-4.86797e-06
4.89662e-05
-4.84311e-05
-5.42156e-06
5.09082e-05
-5.03546e-05
-5.99158e-06
5.28992e-05
-5.23292e-05
-6.57598e-06
5.49402e-05
-5.43558e-05
-7.1727e-06
5.70316e-05
-5.64348e-05
-7.77971e-06
5.91729e-05
-5.85659e-05
-8.39505e-06
6.13631e-05
-6.07478e-05
-9.01679e-06
6.36004e-05
-6.29786e-05
-9.64311e-06
6.58818e-05
-6.52555e-05
-1.02722e-05
6.82034e-05
-6.75743e-05
-1.09025e-05
7.05603e-05
-6.993e-05
-1.15323e-05
7.29462e-05
-7.23164e-05
-1.216e-05
7.5354e-05
-7.47262e-05
-1.27842e-05
7.7775e-05
-7.71508e-05
-1.34033e-05
8.01996e-05
-7.95805e-05
-1.4016e-05
8.2617e-05
-8.20043e-05
-1.4621e-05
8.50151e-05
-8.44102e-05
-1.52169e-05
8.7381e-05
-8.67852e-05
-1.58024e-05
8.97008e-05
-8.91152e-05
-1.63765e-05
9.19595e-05
-9.13854e-05
-1.69381e-05
9.41419e-05
-9.35803e-05
-1.74863e-05
9.62321e-05
-9.56839e-05
-1.80203e-05
9.82139e-05
-9.76799e-05
-1.85398e-05
0.000100071
-9.9552e-05
-1.90442e-05
0.000101789
-0.000101284
-1.95337e-05
0.000103351
-0.000102862
-2.00084e-05
0.000104744
-0.000104269
-2.04691e-05
0.000105955
-0.000105495
-2.09164e-05
0.000106974
-0.000106526
-2.13517e-05
0.00010779
-0.000107354
-2.17765e-05
0.000108396
-0.000107972
-2.21925e-05
0.000108789
-0.000108373
-2.26018e-05
0.000108966
-0.000108556
-2.30067e-05
0.000108925
-0.000108521
-2.34094e-05
0.000108671
-0.000108268
-2.38125e-05
0.000108206
-0.000107802
-2.42184e-05
0.000107535
-0.000107129
-2.46294e-05
0.000106664
-0.000106253
-2.50477e-05
0.000105599
-0.000105181
-2.54753e-05
0.000104345
-0.000103918
-2.5914e-05
0.000102907
-0.000102468
-2.63651e-05
0.000101286
-0.000100834
-2.68298e-05
9.94799e-05
-9.90151e-05
-2.7309e-05
9.74856e-05
-9.70064e-05
-2.78032e-05
9.52948e-05
-9.48005e-05
-2.83129e-05
9.28956e-05
-9.23859e-05
-2.88383e-05
9.02722e-05
-8.97468e-05
-2.93797e-05
8.74054e-05
-8.6864e-05
-2.99372e-05
8.42723e-05
-8.37148e-05
-3.05113e-05
8.08475e-05
-8.02734e-05
-3.11025e-05
7.7103e-05
-7.65118e-05
-3.17115e-05
7.30092e-05
-7.24001e-05
-3.23396e-05
6.85353e-05
-6.79072e-05
-3.29882e-05
6.36497e-05
-6.30011e-05
-3.36591e-05
5.83205e-05
-5.76496e-05
-3.43545e-05
5.25158e-05
-5.18204e-05
-3.50769e-05
4.62034e-05
-4.54809e-05
-3.58293e-05
3.93512e-05
-3.85989e-05
-3.66146e-05
3.19271e-05
-3.11418e-05
2.38983e-05
-3.74362e-05
-2.30766e-05
6.14815e-09
2.7655e-07
2.41581e-08
8.46261e-07
5.37897e-08
1.446e-06
9.47097e-08
2.07659e-06
1.46485e-07
2.73882e-06
2.08575e-07
3.43342e-06
2.80328e-07
4.16108e-06
3.60978e-07
4.92244e-06
4.49636e-07
5.71805e-06
5.45289e-07
6.54843e-06
6.46802e-07
7.41397e-06
7.52914e-07
8.31501e-06
8.62242e-07
9.25178e-06
9.7328e-07
1.02244e-05
1.08441e-06
1.1233e-05
1.19392e-06
1.22775e-05
1.29998e-06
1.33577e-05
1.40071e-06
1.44734e-05
1.49413e-06
1.56242e-05
1.57824e-06
1.68099e-05
1.65102e-06
1.80298e-05
1.71042e-06
1.92836e-05
1.75445e-06
2.05707e-05
1.78117e-06
2.18905e-05
1.78872e-06
2.32426e-05
1.77534e-06
2.46266e-05
1.73946e-06
2.60419e-05
1.67965e-06
2.74885e-05
1.59471e-06
2.89662e-05
1.48366e-06
3.0475e-05
1.3458e-06
3.20151e-05
1.18068e-06
3.35871e-05
9.88156e-07
3.51917e-05
7.6836e-07
3.68297e-05
5.21733e-07
3.85022e-05
2.48997e-07
4.02108e-05
-4.88537e-08
4.19568e-05
-3.70575e-07
4.3742e-05
-7.147e-07
4.55681e-05
-1.07957e-06
4.74369e-05
-1.46339e-06
4.935e-05
-1.86424e-06
5.1309e-05
-2.28013e-06
5.33151e-05
-2.70904e-06
5.53692e-05
-3.14898e-06
5.74715e-05
-3.59799e-06
5.96219e-05
-4.05416e-06
6.18193e-05
-4.51571e-06
6.40619e-05
-4.98096e-06
6.6347e-05
-5.44832e-06
6.86708e-05
-5.91637e-06
7.10283e-05
-6.38378e-06
7.34136e-05
-6.84935e-06
7.58195e-05
-7.31197e-06
7.82376e-05
-7.77067e-06
8.06583e-05
-8.22455e-06
8.30709e-05
-8.67281e-06
8.54634e-05
-9.11475e-06
8.7823e-05
-9.54976e-06
9.01358e-05
-9.97734e-06
9.23871e-05
-1.03971e-05
9.45617e-05
-1.08088e-05
9.66438e-05
-1.12123e-05
9.86174e-05
-1.16076e-05
0.000100467
-1.1995e-05
0.000102176
-1.23749e-05
0.000103731
-1.27478e-05
0.000105117
-1.31146e-05
0.000106322
-1.34763e-05
0.000107335
-1.3834e-05
0.000108147
-1.41889e-05
0.000108751
-1.45426e-05
0.000109143
-1.48965e-05
0.000109319
-1.52523e-05
0.000109281
-1.56114e-05
0.00010903
-1.59755e-05
0.00010857
-1.63459e-05
0.000107905
-1.6724e-05
0.000107042
-1.71109e-05
0.000105986
-1.75076e-05
0.000104742
-1.79149e-05
0.000103314
-1.83333e-05
0.000101704
-1.87633e-05
9.99099e-05
-1.92052e-05
9.79275e-05
-1.96594e-05
9.57489e-05
-2.0126e-05
9.33622e-05
-2.06056e-05
9.07518e-05
-2.10984e-05
8.78983e-05
-2.16053e-05
8.47793e-05
-2.21272e-05
8.13694e-05
-2.26654e-05
7.76412e-05
-2.32214e-05
7.35652e-05
-2.37972e-05
6.91111e-05
-2.43952e-05
6.42476e-05
-2.50179e-05
5.89433e-05
-2.56685e-05
5.31663e-05
-2.63501e-05
4.6885e-05
-2.70665e-05
4.00676e-05
-2.78215e-05
3.2682e-05
2.46958e-05
-2.8619e-05
7.36739e-09
2.69183e-07
2.91234e-08
8.24505e-07
6.51762e-08
1.40995e-06
1.15346e-07
2.02642e-06
1.79358e-07
2.67481e-06
2.56833e-07
3.35594e-06
3.47282e-07
4.07063e-06
4.50103e-07
4.81962e-06
5.6457e-07
5.60359e-06
6.89834e-07
6.42316e-06
8.24917e-07
7.27888e-06
9.68711e-07
8.17121e-06
1.11998e-06
9.10052e-06
1.27734e-06
1.00671e-05
1.43932e-06
1.1071e-05
1.60428e-06
1.21125e-05
1.77051e-06
1.31914e-05
1.93619e-06
1.43077e-05
2.09938e-06
1.5461e-05
2.25812e-06
1.66511e-05
2.41037e-06
1.78776e-05
2.55406e-06
1.91399e-05
2.68715e-06
2.04376e-05
2.80759e-06
2.17701e-05
2.91341e-06
2.31368e-05
3.00273e-06
2.45372e-05
3.07377e-06
2.59709e-05
3.12494e-06
2.74374e-05
3.1548e-06
2.89363e-05
3.16215e-06
3.04676e-05
3.14604e-06
3.20312e-05
3.10575e-06
3.36274e-05
3.04089e-06
3.52565e-05
2.95133e-06
3.69192e-05
2.83728e-06
3.86163e-05
2.69921e-06
4.03489e-05
2.53791e-06
4.21181e-05
2.35442e-06
4.39255e-05
2.15005e-06
4.57725e-05
1.92629e-06
4.76607e-05
1.68484e-06
4.95915e-05
1.42751e-06
5.15664e-05
1.1562e-06
5.35864e-05
8.72858e-07
5.56525e-05
5.79428e-07
5.77649e-05
2.77804e-07
5.99235e-05
-3.01994e-08
6.21273e-05
-3.42882e-07
6.43746e-05
-6.5868e-07
6.66628e-05
-9.76187e-07
6.89883e-05
-1.29416e-06
7.13463e-05
-1.61152e-06
7.3731e-05
-1.92737e-06
7.61354e-05
-2.24096e-06
7.85512e-05
-2.55171e-06
8.09691e-05
-2.85915e-06
8.33783e-05
-3.16299e-06
8.57672e-05
-3.46305e-06
8.8123e-05
-3.75927e-06
9.0432e-05
-4.05172e-06
9.26796e-05
-4.34057e-06
9.48505e-05
-4.62613e-06
9.69293e-05
-4.90882e-06
9.89001e-05
-5.18918e-06
0.000100747
-5.46786e-06
0.000102455
-5.74564e-06
0.000104009
-6.02335e-06
0.000105395
-6.30189e-06
0.000106601
-6.58268e-06
0.000107616
-6.86639e-06
0.000108431
-7.15423e-06
0.000109039
-7.44729e-06
0.000109436
-7.74663e-06
0.000109619
-8.0532e-06
0.000109588
-8.36786e-06
0.000109345
-8.69131e-06
0.000108893
-9.0241e-06
0.000108238
-9.36663e-06
0.000107384
-9.71912e-06
0.000106338
-1.00816e-05
0.000105105
-1.04541e-05
0.000103687
-1.08365e-05
0.000102086
-1.12286e-05
0.000100302
-1.16303e-05
9.83293e-05
-1.20418e-05
9.61604e-05
-1.2463e-05
9.37835e-05
-1.28947e-05
9.11834e-05
-1.33374e-05
8.8341e-05
-1.37924e-05
8.52342e-05
-1.4261e-05
8.18381e-05
-1.47454e-05
7.81255e-05
-1.52477e-05
7.40675e-05
-1.57707e-05
6.96341e-05
-1.63176e-05
6.47944e-05
-1.68917e-05
5.95174e-05
-1.74968e-05
5.37715e-05
-1.8137e-05
4.75253e-05
-1.88166e-05
4.07472e-05
-1.95401e-05
3.34055e-05
2.54678e-05
-2.03121e-05
8.36583e-09
2.60817e-07
3.32063e-08
7.99664e-07
7.45712e-08
1.36858e-06
1.32428e-07
1.96857e-06
2.06655e-07
2.60058e-06
2.97032e-07
3.26557e-06
4.03232e-07
3.96443e-06
5.24819e-07
4.69803e-06
6.61236e-07
5.46717e-06
8.11803e-07
6.2726e-06
9.75709e-07
7.11498e-06
1.15201e-06
7.99491e-06
1.33963e-06
8.9129e-06
1.53735e-06
9.86935e-06
1.74381e-06
1.08646e-05
1.95755e-06
1.18988e-05
2.17694e-06
1.29721e-05
2.40025e-06
1.40844e-05
2.62567e-06
1.52356e-05
2.85125e-06
1.64255e-05
3.075e-06
1.76538e-05
3.29486e-06
1.892e-05
3.50876e-06
2.02237e-05
3.71459e-06
2.15642e-05
3.91032e-06
2.29411e-05
4.09392e-06
2.43536e-05
4.2635e-06
2.58013e-05
4.41728e-06
2.72836e-05
4.55362e-06
2.88e-05
4.6711e-06
3.03501e-05
4.76851e-06
3.19338e-05
4.84491e-06
3.3551e-05
4.89961e-06
3.52018e-05
4.93224e-06
3.68866e-05
4.9427e-06
3.86058e-05
4.93123e-06
4.03603e-05
4.89837e-06
4.2151e-05
4.84492e-06
4.3979e-05
4.77197e-06
4.58454e-05
4.68086e-06
4.77518e-05
4.57311e-06
4.96992e-05
4.4504e-06
5.16891e-05
4.31452e-06
5.37223e-05
4.16734e-06
5.57997e-05
4.01071e-06
5.79216e-05
3.84647e-06
6.00877e-05
3.67636e-06
6.22974e-05
3.502e-06
6.4549e-05
3.32486e-06
6.684e-05
3.14621e-06
6.91669e-05
2.96715e-06
7.15253e-05
2.78856e-06
7.39096e-05
2.6111e-06
7.63128e-05
2.43522e-06
7.87271e-05
2.26119e-06
8.11431e-05
2.08906e-06
8.35504e-05
1.91875e-06
8.59376e-05
1.74996e-06
8.82918e-05
1.58228e-06
9.05997e-05
1.41516e-06
9.28467e-05
1.2479e-06
9.50178e-05
1.07972e-06
9.70975e-05
9.09728e-07
9.90701e-05
7.36938e-07
0.00010092
5.60308e-07
0.000102632
3.78741e-07
0.00010419
1.91069e-07
0.000105583
-3.89565e-09
0.000106796
-2.06451e-07
0.000107819
-4.18383e-07
0.000108643
-6.40542e-07
0.000109261
-8.73651e-07
0.000109669
-1.11832e-06
0.000109863
-1.37496e-06
0.000109844
-1.64379e-06
0.000109613
-1.92481e-06
0.000109174
-2.21778e-06
0.000108531
-2.52228e-06
0.000107689
-2.83773e-06
0.000106654
-3.16343e-06
0.00010543
-3.4986e-06
0.000104022
-3.84251e-06
0.00010243
-4.19452e-06
0.000100654
-4.55416e-06
9.86889e-05
-4.92124e-06
9.65274e-05
-5.29592e-06
9.41582e-05
-5.67875e-06
9.15662e-05
-6.07075e-06
8.8733e-05
-6.47342e-06
8.56369e-05
-6.88872e-06
8.22534e-05
-7.31932e-06
7.85561e-05
-7.76805e-06
7.45163e-05
-8.23838e-06
7.01044e-05
-8.73415e-06
6.52902e-05
-9.25954e-06
6.00427e-05
-9.81903e-06
5.43309e-05
-1.04174e-05
4.81236e-05
-1.10595e-05
4.13894e-05
-1.17506e-05
3.40966e-05
2.6213e-05
-1.24959e-05
9.15786e-09
2.51659e-07
3.64632e-08
7.72359e-07
8.20976e-08
1.32295e-06
1.46168e-07
1.90449e-06
2.28699e-07
2.51805e-06
3.29624e-07
3.16464e-06
4.48775e-07
3.84528e-06
5.8588e-07
4.56092e-06
7.40552e-07
5.3125e-06
9.12282e-07
6.10087e-06
1.10043e-06
6.92683e-06
1.30423e-06
7.79111e-06
1.52278e-06
8.69436e-06
1.75501e-06
9.63712e-06
1.99975e-06
1.06198e-05
2.25566e-06
1.16429e-05
2.52128e-06
1.27064e-05
2.795e-06
1.38107e-05
3.07509e-06
1.49555e-05
3.35972e-06
1.61409e-05
3.64696e-06
1.73666e-05
3.93478e-06
1.86322e-05
4.22113e-06
1.99373e-05
4.50389e-06
2.12815e-05
4.78096e-06
2.2664e-05
5.05026e-06
2.40843e-05
5.30976e-06
2.55418e-05
5.55753e-06
2.70358e-05
5.79178e-06
2.85657e-05
6.01088e-06
3.0131e-05
6.21339e-06
3.17313e-05
6.3981e-06
3.33663e-05
6.56407e-06
3.50358e-05
6.71065e-06
3.674e-05
6.83747e-06
3.8479e-05
6.94447e-06
4.02533e-05
7.03192e-06
4.20635e-05
7.10038e-06
4.39105e-05
7.15069e-06
4.57951e-05
7.18395e-06
4.77185e-05
7.20151e-06
4.96817e-05
7.20489e-06
5.16857e-05
7.19574e-06
5.37314e-05
7.1758e-06
5.58196e-05
7.14685e-06
5.79505e-05
7.11063e-06
6.0124e-05
7.06884e-06
6.23392e-05
7.02301e-06
6.45948e-05
6.97454e-06
6.68884e-05
6.92463e-06
6.92168e-05
6.87424e-06
7.15757e-05
6.8241e-06
7.39597e-05
6.7747e-06
7.63622e-05
6.72626e-06
7.87755e-05
6.67878e-06
8.11906e-05
6.63201e-06
8.35972e-05
6.58551e-06
8.59841e-05
6.53861e-06
8.83387e-05
6.4905e-06
9.06478e-05
6.44019e-06
9.2897e-05
6.38656e-06
9.50714e-05
6.3284e-06
9.71557e-05
6.2644e-06
9.91341e-05
6.1932e-06
0.000100991
6.11342e-06
0.000102711
6.0237e-06
0.00010428
5.92271e-06
0.000105684
5.80927e-06
0.000106909
5.68185e-06
0.000107946
5.53987e-06
0.000108785
5.38252e-06
0.000109419
5.20923e-06
0.000109842
5.01976e-06
0.000110053
4.81411e-06
0.00011005
4.59262e-06
0.000109835
4.35592e-06
0.000109411
4.10488e-06
0.000108782
3.84064e-06
0.000107953
3.56446e-06
0.00010693
3.27775e-06
0.000105717
2.98188e-06
0.000104318
2.67816e-06
0.000102734
2.36768e-06
0.000100964
2.05123e-06
9.90054e-05
1.72921e-06
9.68495e-05
1.40154e-06
9.44859e-05
1.06758e-06
9.19002e-05
7.26121e-07
8.90745e-05
3.75289e-07
8.59877e-05
1.25901e-08
8.26161e-05
-3.64688e-07
7.89334e-05
-7.6042e-07
7.4912e-05
-1.17863e-06
7.05226e-05
-1.62377e-06
6.57354e-05
-2.10071e-06
6.05197e-05
-2.6146e-06
5.48448e-05
-3.17083e-06
4.86798e-05
-3.775e-06
4.19936e-05
-4.43287e-06
3.47545e-05
2.69305e-05
-5.15031e-06
9.76025e-09
2.41899e-07
3.89586e-08
7.4316e-07
8.78982e-08
1.27401e-06
1.56816e-07
1.83558e-06
2.45873e-07
2.42899e-06
3.55149e-07
3.05537e-06
4.84629e-07
3.7158e-06
6.34202e-07
4.41135e-06
8.03645e-07
5.14305e-06
9.92622e-07
5.91189e-06
1.20067e-06
6.71878e-06
1.42719e-06
7.56459e-06
1.67147e-06
8.45008e-06
1.93262e-06
9.37597e-06
2.20963e-06
1.03428e-05
2.50134e-06
1.13512e-05
2.80644e-06
1.24013e-05
3.12347e-06
1.34936e-05
3.45085e-06
1.46281e-05
3.78685e-06
1.58049e-05
4.12964e-06
1.70238e-05
4.47727e-06
1.82846e-05
4.82773e-06
1.95869e-05
5.17893e-06
2.09303e-05
5.52874e-06
2.23142e-05
5.87505e-06
2.3738e-05
6.21575e-06
2.52011e-05
6.54879e-06
2.67028e-05
6.87225e-06
2.82423e-05
7.1843e-06
2.9819e-05
7.4833e-06
3.14323e-05
7.76782e-06
3.30818e-05
8.03665e-06
3.4767e-05
8.28886e-06
3.64878e-05
8.5238e-06
3.82441e-05
8.74113e-06
4.0036e-05
8.94081e-06
4.18639e-05
9.12312e-06
4.37282e-05
9.28865e-06
4.56296e-05
9.43825e-06
4.75689e-05
9.57302e-06
4.95469e-05
9.69431e-06
5.15644e-05
9.80359e-06
5.36222e-05
9.90248e-06
5.57207e-05
9.99263e-06
5.78604e-05
1.00757e-05
6.00409e-05
1.01533e-05
6.22616e-05
1.0227e-05
6.45212e-05
1.0298e-05
6.68174e-05
1.03675e-05
6.91473e-05
1.04363e-05
7.15069e-05
1.05052e-05
7.38908e-05
1.05744e-05
7.6293e-05
1.06441e-05
7.87059e-05
1.07139e-05
8.11207e-05
1.07835e-05
8.35276e-05
1.08521e-05
8.59155e-05
1.09187e-05
8.82721e-05
1.09822e-05
9.05843e-05
1.10412e-05
9.2838e-05
1.10942e-05
9.50184e-05
1.11397e-05
9.71102e-05
1.11759e-05
9.90979e-05
1.12012e-05
0.000100966
1.12139e-05
0.000102699
1.12123e-05
0.000104282
1.11948e-05
0.000105701
1.11602e-05
0.000106944
1.11071e-05
0.000107999
1.10346e-05
0.000108857
1.0942e-05
0.000109511
1.08291e-05
0.000109955
1.06959e-05
0.000110186
1.05427e-05
0.000110203
1.03703e-05
0.000110007
1.01798e-05
0.000109601
9.97276e-06
0.000108989
9.75083e-06
0.000108175
9.51591e-06
0.000107165
9.26998e-06
0.000105963
9.01496e-06
0.000104573
8.75265e-06
0.000102996
8.48457e-06
0.000101233
8.21183e-06
9.92781e-05
7.93502e-06
9.71263e-05
7.65416e-06
9.47667e-05
7.36859e-06
9.21857e-05
7.07692e-06
8.93661e-05
6.77708e-06
8.62875e-05
6.46629e-06
8.29269e-05
6.14094e-06
7.92587e-05
5.79706e-06
7.52559e-05
5.43001e-06
7.08897e-05
5.0347e-06
6.61307e-05
4.60564e-06
6.09487e-05
4.13706e-06
5.53134e-05
3.62294e-06
4.9194e-05
3.05705e-06
4.25595e-05
2.43304e-06
3.53785e-05
2.76191e-05
1.74444e-06
1.01906e-08
2.31708e-07
4.0762e-08
7.12589e-07
9.21271e-08
1.22264e-06
1.64641e-07
1.76306e-06
2.58594e-07
2.33504e-06
3.74199e-07
2.93976e-06
5.11588e-07
3.57841e-06
6.70802e-07
4.25214e-06
8.51779e-07
4.96208e-06
1.05435e-06
5.70932e-06
1.27822e-06
6.49491e-06
1.52299e-06
7.31982e-06
1.78809e-06
8.18498e-06
2.07285e-06
9.09121e-06
2.37642e-06
1.00393e-05
2.69783e-06
1.10297e-05
3.03594e-06
1.20632e-05
3.38947e-06
1.31401e-05
3.75697e-06
1.42606e-05
4.13687e-06
1.5425e-05
4.52747e-06
1.66332e-05
4.92691e-06
1.78851e-05
5.33326e-06
1.91805e-05
5.7445e-06
2.0519e-05
6.15851e-06
2.19002e-05
6.57318e-06
2.33234e-05
6.98635e-06
2.47879e-05
7.39592e-06
2.62932e-05
7.79982e-06
2.78384e-05
8.19609e-06
2.94227e-05
8.58293e-06
3.10455e-05
8.95866e-06
3.2706e-05
9.32187e-06
3.44038e-05
9.67133e-06
3.61383e-05
1.00061e-05
3.79093e-05
1.03256e-05
3.97165e-05
1.06295e-05
4.156e-05
1.09177e-05
4.344e-05
1.11906e-05
4.53568e-05
1.14487e-05
4.73108e-05
1.16928e-05
4.93027e-05
1.19242e-05
5.13331e-05
1.2144e-05
5.34023e-05
1.23538e-05
5.5511e-05
1.2555e-05
5.76592e-05
1.27492e-05
5.98467e-05
1.29379e-05
6.20728e-05
1.31226e-05
6.43364e-05
1.33046e-05
6.66355e-05
1.34849e-05
6.8967e-05
1.36644e-05
7.13274e-05
1.38436e-05
7.37116e-05
1.40228e-05
7.61138e-05
1.4202e-05
7.85267e-05
1.43808e-05
8.09419e-05
1.45586e-05
8.33499e-05
1.47344e-05
8.57397e-05
1.49069e-05
8.80996e-05
1.50748e-05
9.04164e-05
1.52364e-05
9.26764e-05
1.539e-05
9.48649e-05
1.55335e-05
9.69667e-05
1.5665e-05
9.89664e-05
1.57825e-05
0.000100848
1.58839e-05
0.000102597
1.59675e-05
0.000104198
1.60315e-05
0.000105637
1.60742e-05
0.000106901
1.60944e-05
0.000107979
1.60911e-05
0.000108861
1.60637e-05
0.000109539
1.60119e-05
0.000110007
1.59361e-05
0.000110262
1.58369e-05
0.000110302
1.57154e-05
0.000110129
1.55732e-05
0.000109743
1.54122e-05
0.00010915
1.52345e-05
0.000108353
1.50426e-05
0.000107357
1.4839e-05
0.000106167
1.46261e-05
0.000104786
1.44061e-05
0.000103216
1.4181e-05
0.000101458
1.39521e-05
9.9507e-05
1.37202e-05
9.73581e-05
1.34856e-05
9.50014e-05
1.32475e-05
9.24238e-05
1.30045e-05
8.96091e-05
1.27542e-05
8.65378e-05
1.24937e-05
8.31874e-05
1.2219e-05
7.95334e-05
1.19257e-05
7.55492e-05
1.16086e-05
7.12068e-05
1.12621e-05
6.64772e-05
1.08801e-05
6.13307e-05
1.04563e-05
5.57372e-05
9.98413e-06
4.96662e-05
9.45668e-06
4.30869e-05
8.86704e-06
3.59681e-05
2.8278e-05
8.20814e-06
1.04672e-08
2.21241e-07
4.19449e-08
6.81111e-07
9.49438e-08
1.16964e-06
1.69926e-07
1.68808e-06
2.67296e-07
2.23767e-06
3.87395e-07
2.81966e-06
5.30488e-07
3.43532e-06
6.96758e-07
4.08587e-06
8.86298e-07
4.77254e-06
1.0991e-06
5.49652e-06
1.33503e-06
6.25897e-06
1.59387e-06
7.06099e-06
1.87524e-06
7.90361e-06
2.17863e-06
8.78781e-06
2.50341e-06
9.71448e-06
2.84876e-06
1.06844e-05
3.21376e-06
1.16982e-05
3.59727e-06
1.27566e-05
3.99806e-06
1.38599e-05
4.41469e-06
1.50084e-05
4.84561e-06
1.62023e-05
5.28911e-06
1.74416e-05
5.74336e-06
1.87263e-05
6.20642e-06
2.0056e-05
6.67625e-06
2.14304e-05
7.15075e-06
2.28489e-05
7.62776e-06
2.43109e-05
8.10515e-06
2.58158e-05
8.58077e-06
2.73627e-05
9.05256e-06
2.89509e-05
9.51854e-06
3.05795e-05
9.97689e-06
3.22477e-05
1.0426e-05
3.39548e-05
1.08643e-05
3.57e-05
1.12907e-05
3.74829e-05
1.17042e-05
3.9303e-05
1.21043e-05
4.11599e-05
1.24905e-05
4.30537e-05
1.28629e-05
4.49843e-05
1.32218e-05
4.69519e-05
1.35678e-05
4.89568e-05
1.39017e-05
5.09992e-05
1.42245e-05
5.30795e-05
1.45376e-05
5.51979e-05
1.48422e-05
5.73545e-05
1.514e-05
5.9549e-05
1.54321e-05
6.17807e-05
1.57201e-05
6.40484e-05
1.60052e-05
6.63504e-05
1.62884e-05
6.86838e-05
1.65706e-05
7.10452e-05
1.68522e-05
7.343e-05
1.71335e-05
7.58325e-05
1.74144e-05
7.82458e-05
1.76945e-05
8.06619e-05
1.79729e-05
8.30714e-05
1.82486e-05
8.5464e-05
1.85203e-05
8.7828e-05
1.87861e-05
9.01506e-05
1.90443e-05
9.24182e-05
1.92928e-05
9.46164e-05
1.95293e-05
9.67301e-05
1.97517e-05
9.8744e-05
1.99577e-05
0.000100642
2.01449e-05
0.00010241
2.03112e-05
0.000104032
2.04547e-05
0.000105494
2.05737e-05
0.000106782
2.06666e-05
0.000107886
2.07326e-05
0.000108795
2.07709e-05
0.0001095
2.07814e-05
0.000109996
2.07644e-05
0.000110279
2.07209e-05
0.000110346
2.06522e-05
0.000110198
2.05602e-05
0.000109835
2.04471e-05
0.000109263
2.03156e-05
0.000108484
2.01685e-05
0.000107504
2.00086e-05
0.000106326
1.98389e-05
0.000104956
1.9662e-05
0.000103393
1.94801e-05
0.00010164
1.92949e-05
9.96922e-05
1.91076e-05
9.75454e-05
1.89183e-05
9.51906e-05
1.87266e-05
9.26156e-05
1.85308e-05
8.98049e-05
1.83286e-05
8.67399e-05
1.81168e-05
8.33993e-05
1.78911e-05
7.97591e-05
1.76467e-05
7.57936e-05
1.73781e-05
7.14754e-05
1.70791e-05
6.67762e-05
1.67432e-05
6.16666e-05
1.63635e-05
5.61169e-05
1.59328e-05
5.00969e-05
1.54438e-05
4.35759e-05
1.48888e-05
3.65231e-05
2.89065e-05
1.42603e-05
1.0608e-08
2.10633e-07
4.25787e-08
6.49141e-07
9.6508e-08
1.11572e-06
1.72952e-07
1.61164e-06
2.7242e-07
2.1382e-06
3.95365e-07
2.69672e-06
5.42176e-07
3.2885e-06
7.13169e-07
3.91487e-06
9.08577e-07
4.57713e-06
1.12854e-06
5.27656e-06
1.37311e-06
6.01441e-06
1.6422e-06
6.7919e-06
1.93562e-06
7.61019e-06
2.25306e-06
8.47037e-06
2.59405e-06
9.37349e-06
2.95799e-06
1.03205e-05
3.34412e-06
1.13121e-05
3.75152e-06
1.23492e-05
4.17911e-06
1.34323e-05
4.62566e-06
1.45618e-05
5.08978e-06
1.57382e-05
5.5699e-06
1.69615e-05
6.06435e-06
1.82318e-05
6.57128e-06
1.95491e-05
7.08877e-06
2.09129e-05
7.61477e-06
2.23229e-05
8.14716e-06
2.37785e-05
8.68381e-06
2.52792e-05
9.22253e-06
2.6824e-05
9.76119e-06
2.84122e-05
1.02977e-05
3.0043e-05
1.08301e-05
3.17153e-05
1.13565e-05
3.34283e-05
1.18753e-05
3.51812e-05
1.23851e-05
3.69731e-05
1.28845e-05
3.88035e-05
1.33728e-05
4.06717e-05
1.38493e-05
4.25773e-05
1.43136e-05
4.452e-05
1.47658e-05
4.64997e-05
1.52062e-05
4.85164e-05
1.56353e-05
5.05701e-05
1.60539e-05
5.26609e-05
1.64631e-05
5.47887e-05
1.6864e-05
5.69535e-05
1.72581e-05
5.91549e-05
1.76465e-05
6.13923e-05
1.80305e-05
6.36644e-05
1.84115e-05
6.59694e-05
1.87903e-05
6.8305e-05
1.91677e-05
7.06677e-05
1.95444e-05
7.30533e-05
1.99206e-05
7.54564e-05
2.0296e-05
7.78704e-05
2.06702e-05
8.02876e-05
2.10425e-05
8.26992e-05
2.14115e-05
8.5095e-05
2.17758e-05
8.74636e-05
2.21336e-05
8.97928e-05
2.24829e-05
9.2069e-05
2.28213e-05
9.4278e-05
2.31464e-05
9.6405e-05
2.34557e-05
9.84347e-05
2.37467e-05
0.000100351
2.40168e-05
0.00010214
2.42638e-05
0.000103785
2.44854e-05
0.000105272
2.46797e-05
0.000106588
2.48451e-05
0.000107721
2.49805e-05
0.000108659
2.50852e-05
0.000109396
2.51591e-05
0.000109923
2.52025e-05
0.000110236
2.52165e-05
0.000110332
2.52025e-05
0.000110211
2.51627e-05
0.000109875
2.50996e-05
0.000109326
2.50161e-05
0.000108568
2.49154e-05
0.000107605
2.48007e-05
0.000106441
2.46752e-05
0.000105081
2.4542e-05
0.000103526
2.44036e-05
0.000101778
2.42621e-05
9.98337e-05
2.41187e-05
9.76888e-05
2.39739e-05
9.53354e-05
2.38273e-05
9.27623e-05
2.36773e-05
8.99549e-05
2.35215e-05
8.68957e-05
2.33566e-05
8.35642e-05
2.31781e-05
7.99376e-05
2.29808e-05
7.59908e-05
2.2759e-05
7.16973e-05
2.25061e-05
6.70291e-05
2.22151e-05
6.19576e-05
2.18785e-05
5.64534e-05
2.14888e-05
5.04866e-05
2.10379e-05
4.40268e-05
2.05179e-05
3.70431e-05
2.9504e-05
1.99204e-05
1.06306e-08
2.00003e-07
4.27329e-08
6.17038e-07
9.69758e-08
1.06147e-06
1.73997e-07
1.53461e-06
2.74397e-07
2.0378e-06
3.98729e-07
2.57239e-06
5.47493e-07
3.13974e-06
7.21125e-07
3.74124e-06
9.19989e-07
4.37827e-06
1.14437e-06
5.05218e-06
1.39446e-06
5.76432e-06
1.67034e-06
6.51601e-06
1.97199e-06
7.30853e-06
2.29928e-06
8.14309e-06
2.65191e-06
9.02085e-06
3.02948e-06
9.94288e-06
3.43142e-06
1.09102e-05
3.85701e-06
1.19236e-05
4.30536e-06
1.29839e-05
4.77542e-06
1.40917e-05
5.26599e-06
1.52476e-05
5.77569e-06
1.64518e-05
6.30299e-06
1.77045e-05
6.84619e-06
1.90059e-05
7.40348e-06
2.03556e-05
7.97293e-06
2.17534e-05
8.55248e-06
2.3199e-05
9.14002e-06
2.46916e-05
9.7334e-06
2.62306e-05
1.03304e-05
2.78152e-05
1.0929e-05
2.94444e-05
1.15269e-05
3.11174e-05
1.21223e-05
3.28329e-05
1.27132e-05
3.45902e-05
1.32981e-05
3.63883e-05
1.38754e-05
3.82262e-05
1.4444e-05
4.01031e-05
1.5003e-05
4.20183e-05
1.55517e-05
4.39713e-05
1.60898e-05
4.59616e-05
1.66173e-05
4.79889e-05
1.71344e-05
5.00529e-05
1.76418e-05
5.21535e-05
1.81403e-05
5.42903e-05
1.86307e-05
5.64631e-05
1.91143e-05
5.86714e-05
1.95921e-05
6.09144e-05
2.00655e-05
6.3191e-05
2.05355e-05
6.54995e-05
2.10031e-05
6.78374e-05
2.14692e-05
7.02017e-05
2.19342e-05
7.25883e-05
2.23983e-05
7.49922e-05
2.28616e-05
7.74071e-05
2.33235e-05
7.98257e-05
2.37832e-05
8.22395e-05
2.42394e-05
8.46388e-05
2.46906e-05
8.70124e-05
2.51348e-05
8.93485e-05
2.55699e-05
9.16338e-05
2.59935e-05
9.38544e-05
2.64029e-05
9.59956e-05
2.67955e-05
9.80421e-05
2.71684e-05
9.99785e-05
2.7519e-05
0.000101789
2.78446e-05
0.000103459
2.8143e-05
0.000104974
2.84119e-05
0.000106319
2.86496e-05
0.000107483
2.88548e-05
0.000108454
2.90267e-05
0.000109224
2.91651e-05
0.000109784
2.92705e-05
0.00011013
2.93437e-05
0.000110259
2.93864e-05
0.000110169
2.94008e-05
0.000109861
2.93897e-05
0.000109337
2.93561e-05
0.000108601
2.93035e-05
0.000107657
2.92354e-05
0.000106509
2.91553e-05
0.000105161
2.90666e-05
0.000103615
2.8972e-05
0.000101872
2.8874e-05
9.99317e-05
2.87741e-05
9.77888e-05
2.86729e-05
9.54366e-05
2.85702e-05
9.2865e-05
2.84645e-05
9.00606e-05
2.83534e-05
8.70067e-05
2.82335e-05
8.36841e-05
2.81003e-05
8.00708e-05
2.79484e-05
7.61427e-05
2.77717e-05
7.1874e-05
2.75632e-05
6.72376e-05
2.73157e-05
6.22052e-05
2.70213e-05
5.67479e-05
2.66717e-05
5.08361e-05
2.62586e-05
4.44399e-05
2.57734e-05
3.75283e-05
3.00701e-05
2.52073e-05
1.05518e-08
1.89451e-07
4.24742e-08
5.85116e-07
9.64971e-08
1.00745e-06
1.73328e-07
1.45778e-06
2.73644e-07
1.93748e-06
3.98087e-07
2.44794e-06
5.47253e-07
2.99057e-06
7.21688e-07
3.56681e-06
9.21874e-07
4.17808e-06
1.14822e-06
4.82583e-06
1.40106e-06
5.51148e-06
1.68063e-06
6.23644e-06
1.98707e-06
7.00209e-06
2.32041e-06
7.80976e-06
2.68053e-06
8.66072e-06
3.06722e-06
9.5562e-06
3.48009e-06
1.04973e-05
3.91862e-06
1.14851e-05
4.38212e-06
1.25204e-05
4.86975e-06
1.36041e-05
5.38048e-06
1.47369e-05
5.91312e-06
1.59192e-05
6.46632e-06
1.71513e-05
7.03857e-06
1.84336e-05
7.62819e-06
1.9766e-05
8.23336e-06
2.11483e-05
8.85214e-06
2.25802e-05
9.4825e-06
2.40613e-05
1.01223e-05
2.55908e-05
1.07694e-05
2.71681e-05
1.14216e-05
2.87922e-05
1.20768e-05
3.04622e-05
1.27328e-05
3.2177e-05
1.33876e-05
3.39354e-05
1.40395e-05
3.57364e-05
1.46866e-05
3.7579e-05
1.53277e-05
3.9462e-05
1.59614e-05
4.13846e-05
1.6587e-05
4.33458e-05
1.72036e-05
4.5345e-05
1.78111e-05
4.73814e-05
1.84095e-05
4.94546e-05
1.89989e-05
5.15641e-05
1.95799e-05
5.37093e-05
2.01532e-05
5.58897e-05
2.07199e-05
5.81047e-05
2.12808e-05
6.03535e-05
2.18371e-05
6.26347e-05
2.23899e-05
6.49467e-05
2.294e-05
6.72873e-05
2.34883e-05
6.96534e-05
2.40353e-05
7.20413e-05
2.45813e-05
7.44461e-05
2.51263e-05
7.68621e-05
2.56698e-05
7.92823e-05
2.62109e-05
8.16984e-05
2.67485e-05
8.41011e-05
2.72811e-05
8.64799e-05
2.78065e-05
8.8823e-05
2.83227e-05
9.11177e-05
2.8827e-05
9.33501e-05
2.93168e-05
9.55059e-05
2.97891e-05
9.75698e-05
3.0241e-05
9.95266e-05
3.06696e-05
0.000101361
3.10721e-05
0.000103057
3.14459e-05
0.0001046
3.17887e-05
0.000105976
3.20985e-05
0.000107173
3.23738e-05
0.000108179
3.26137e-05
0.000108984
3.28179e-05
0.00010958
3.29867e-05
0.000109961
3.31209e-05
0.000110125
3.32223e-05
0.000110067
3.3293e-05
0.00010979
3.33359e-05
0.000109294
3.33541e-05
0.000108583
3.33514e-05
0.00010766
3.33314e-05
0.000106529
3.32979e-05
0.000105195
3.32545e-05
0.000103659
3.32043e-05
0.000101923
3.31499e-05
9.99861e-05
3.30931e-05
9.78456e-05
3.30348e-05
9.54949e-05
3.29749e-05
9.2925e-05
3.29121e-05
9.01233e-05
3.28441e-05
8.70747e-05
3.27675e-05
8.37607e-05
3.26777e-05
8.01606e-05
3.25692e-05
7.62512e-05
3.24357e-05
7.20075e-05
3.22701e-05
6.74032e-05
3.20646e-05
6.24107e-05
3.1811e-05
5.70014e-05
3.15008e-05
5.11464e-05
3.11249e-05
4.48157e-05
3.06743e-05
3.79789e-05
3.06046e-05
3.01398e-05
1.03873e-08
1.79064e-07
4.18653e-08
5.53638e-07
9.5213e-08
9.54102e-07
1.71195e-07
1.3818e-06
2.70554e-07
1.83813e-06
3.94007e-07
2.32449e-06
5.42234e-07
2.84235e-06
7.15875e-07
3.39317e-06
9.15517e-07
3.97844e-06
1.14169e-06
4.59966e-06
1.39484e-06
5.25833e-06
1.67535e-06
5.95593e-06
1.98351e-06
6.69393e-06
2.3195e-06
7.47377e-06
2.68338e-06
8.29684e-06
3.07511e-06
9.16447e-06
3.49448e-06
1.00779e-05
3.94118e-06
1.10384e-05
4.4147e-06
1.20469e-05
4.9144e-06
1.31044e-05
5.43946e-06
1.42118e-05
5.98889e-06
1.53697e-05
6.56152e-06
1.65787e-05
7.15601e-06
1.78391e-05
7.77087e-06
1.91511e-05
8.40443e-06
2.05147e-05
9.05489e-06
2.19297e-05
9.7203e-06
2.33958e-05
1.03986e-05
2.49125e-05
1.10878e-05
2.6479e-05
1.17855e-05
2.80945e-05
1.24897e-05
2.9758e-05
1.31981e-05
3.14685e-05
1.39087e-05
3.32248e-05
1.46195e-05
3.50257e-05
1.53286e-05
3.68699e-05
1.60343e-05
3.87563e-05
1.67352e-05
4.06836e-05
1.74302e-05
4.26509e-05
1.81182e-05
4.4657e-05
1.87986e-05
4.6701e-05
1.94712e-05
4.8782e-05
2.0136e-05
5.08993e-05
2.07931e-05
5.30522e-05
2.1443e-05
5.52398e-05
2.20865e-05
5.74612e-05
2.27244e-05
5.97156e-05
2.33577e-05
6.20014e-05
2.39872e-05
6.43172e-05
2.46139e-05
6.66606e-05
2.52386e-05
6.90287e-05
2.58618e-05
7.14181e-05
2.64839e-05
7.38241e-05
2.71048e-05
7.62412e-05
2.77241e-05
7.86629e-05
2.83413e-05
8.10813e-05
2.89549e-05
8.34874e-05
2.95637e-05
8.58712e-05