/*--------------------------------*- C++ -*----------------------------------*\
| =========                 |                                                 |
| \\      /  F ield         | OpenFOAM: The Open Source CFD Toolbox           |
|  \\    /   O peration     | Version:  2406                                  |
|   \\  /    A nd           | Website:  www.openfoam.com                      |
|    \\/     M anipulation  |                                                 |
\*---------------------------------------------------------------------------*/
FoamFile
{
    version     2.0;
    format      ascii;
    arch        "LSB;label=32;scalar=64";
    class       volVectorField;
    location    "24.96";
    object      U;
}
// * * * * * * * * * * * * * * * * * * * * * * * * * * * * * * * * * * * * * //

dimensions      [0 1 -1 0 0 0 0];

internalField   nonuniform List<vector> 
40000
(
(2.49464e-06 0.00448142 0)
(1.50908e-05 0.0133797 0)
(4.27669e-05 0.0223106 0)
(8.40569e-05 0.0312674 0)
(0.000137427 0.0402433 0)
(0.000201817 0.0492304 0)
(0.000276108 0.0582205 0)
(0.000358954 0.0672047 0)
(0.000448802 0.0761736 0)
(0.000543918 0.0851173 0)
(0.000642382 0.0940252 0)
(0.000742091 0.102887 0)
(0.000840761 0.11169 0)
(0.000935936 0.120424 0)
(0.001025 0.129076 0)
(0.00110519 0.137636 0)
(0.00117361 0.146091 0)
(0.00122726 0.154429 0)
(0.00126308 0.162639 0)
(0.00127792 0.17071 0)
(0.00126865 0.178633 0)
(0.00123216 0.186397 0)
(0.00116538 0.193996 0)
(0.00106539 0.201421 0)
(0.000929375 0.208667 0)
(0.000754761 0.21573 0)
(0.000539199 0.222607 0)
(0.000280636 0.229299 0)
(-2.2649e-05 0.235804 0)
(-0.000372009 0.242128 0)
(-0.000768396 0.248273 0)
(-0.00121233 0.254246 0)
(-0.00170391 0.260055 0)
(-0.00224275 0.265708 0)
(-0.00282806 0.271215 0)
(-0.00345858 0.276586 0)
(-0.00413266 0.281833 0)
(-0.00484828 0.286965 0)
(-0.00560306 0.291991 0)
(-0.00639437 0.296922 0)
(-0.00721931 0.301763 0)
(-0.00807484 0.306519 0)
(-0.00895778 0.311194 0)
(-0.0098649 0.315786 0)
(-0.0107929 0.320292 0)
(-0.0117387 0.324705 0)
(-0.0126991 0.329014 0)
(-0.0136709 0.333207 0)
(-0.0146514 0.337263 0)
(-0.0156377 0.341164 0)
(-0.016627 0.344884 0)
(-0.0176167 0.348395 0)
(-0.0186045 0.351668 0)
(-0.0195879 0.35467 0)
(-0.0205645 0.357367 0)
(-0.0215322 0.359724 0)
(-0.0224886 0.361703 0)
(-0.0234319 0.363269 0)
(-0.0243599 0.364385 0)
(-0.0252707 0.365017 0)
(-0.0261627 0.365132 0)
(-0.0270343 0.3647 0)
(-0.0278842 0.363692 0)
(-0.0287114 0.362088 0)
(-0.0295152 0.359869 0)
(-0.0302954 0.357024 0)
(-0.0310521 0.353546 0)
(-0.031786 0.349437 0)
(-0.0324982 0.344705 0)
(-0.0331904 0.339367 0)
(-0.0338646 0.333444 0)
(-0.0345236 0.326968 0)
(-0.0351702 0.319975 0)
(-0.035808 0.312505 0)
(-0.0364406 0.304604 0)
(-0.0370717 0.296321 0)
(-0.0377054 0.287704 0)
(-0.0383453 0.2788 0)
(-0.038995 0.269656 0)
(-0.039658 0.260311 0)
(-0.0403371 0.2508 0)
(-0.0410348 0.24115 0)
(-0.0417533 0.231382 0)
(-0.042494 0.221505 0)
(-0.043258 0.211522 0)
(-0.0440462 0.201427 0)
(-0.0448589 0.191209 0)
(-0.0456966 0.180848 0)
(-0.0465595 0.170322 0)
(-0.0474481 0.159606 0)
(-0.0483629 0.148673 0)
(-0.0493051 0.137497 0)
(-0.0502762 0.126052 0)
(-0.051278 0.114317 0)
(-0.0523133 0.102269 0)
(-0.0533851 0.0898942 0)
(-0.0544971 0.0771768 0)
(-0.0556537 0.0641063 0)
(-0.0568594 0.0506741 0)
(-0.0581194 0.0368734 0)
(3.29179e-06 0.00439553 0)
(2.02626e-05 0.0131353 0)
(5.80465e-05 0.0219196 0)
(0.000115144 0.0307429 0)
(0.000190024 0.0395988 0)
(0.000281847 0.0484805 0)
(0.000389747 0.0573804 0)
(0.000512607 0.0662903 0)
(0.000649092 0.0752014 0)
(0.000797671 0.0841043 0)
(0.000956619 0.0929889 0)
(0.00112401 0.101845 0)
(0.00129771 0.110661 0)
(0.0014754 0.119425 0)
(0.00165458 0.128127 0)
(0.00183255 0.136753 0)
(0.00200646 0.145292 0)
(0.00217332 0.153731 0)
(0.00233004 0.162058 0)
(0.0024734 0.170262 0)
(0.00260016 0.178332 0)
(0.00270705 0.186256 0)
(0.00279081 0.194025 0)
(0.00284826 0.20163 0)
(0.00287633 0.209065 0)
(0.00287213 0.216322 0)
(0.00283295 0.223397 0)
(0.00275637 0.230288 0)
(0.00264028 0.236992 0)
(0.00248292 0.243512 0)
(0.00228293 0.249848 0)
(0.00203938 0.256005 0)
(0.00175178 0.261988 0)
(0.00142015 0.267805 0)
(0.00104493 0.273463 0)
(0.000627073 0.278972 0)
(0.000167967 0.284341 0)
(-0.000330578 0.289579 0)
(-0.00086637 0.294696 0)
(-0.00143689 0.299701 0)
(-0.00203933 0.304599 0)
(-0.00267069 0.309398 0)
(-0.00332783 0.314098 0)
(-0.0040075 0.318702 0)
(-0.00470648 0.323207 0)
(-0.00542156 0.327606 0)
(-0.00614963 0.33189 0)
(-0.00688775 0.336046 0)
(-0.0076331 0.340059 0)
(-0.00838307 0.343907 0)
(-0.00913525 0.347568 0)
(-0.00988742 0.351015 0)
(-0.0106376 0.354218 0)
(-0.0113838 0.357147 0)
(-0.0121245 0.359767 0)
(-0.0128582 0.362043 0)
(-0.0135835 0.363941 0)
(-0.0142991 0.365423 0)
(-0.015004 0.366455 0)
(-0.0156974 0.367002 0)
(-0.0163785 0.367032 0)
(-0.0170468 0.366516 0)
(-0.0177019 0.365426 0)
(-0.0183438 0.363741 0)
(-0.0189727 0.361444 0)
(-0.0195891 0.358524 0)
(-0.0201937 0.354975 0)
(-0.0207877 0.350801 0)
(-0.0213725 0.346009 0)
(-0.0219499 0.340615 0)
(-0.0225217 0.334645 0)
(-0.0230903 0.328127 0)
(-0.0236579 0.321097 0)
(-0.0242271 0.313599 0)
(-0.0248005 0.305675 0)
(-0.0253806 0.297375 0)
(-0.0259697 0.288746 0)
(-0.0265702 0.279836 0)
(-0.0271841 0.270688 0)
(-0.027813 0.261344 0)
(-0.0284584 0.251835 0)
(-0.0291214 0.24219 0)
(-0.0298028 0.232427 0)
(-0.0305032 0.222556 0)
(-0.0312232 0.21258 0)
(-0.0319631 0.202491 0)
(-0.0327235 0.192278 0)
(-0.0335049 0.181923 0)
(-0.0343082 0.171403 0)
(-0.0351348 0.160693 0)
(-0.0359863 0.149768 0)
(-0.0368651 0.1386 0)
(-0.037774 0.127166 0)
(-0.0387164 0.115443 0)
(-0.0396964 0.103411 0)
(-0.0407184 0.0910549 0)
(-0.0417875 0.0783598 0)
(-0.0429095 0.0653153 0)
(-0.0440901 0.0519128 0)
(-0.0453357 0.0381456 0)
(4.00014e-06 0.00428869 0)
(2.48829e-05 0.0128281 0)
(7.17371e-05 0.0214238 0)
(0.00014306 0.030071 0)
(0.000237356 0.0387644 0)
(0.000354017 0.0474977 0)
(0.000492442 0.0562643 0)
(0.000651764 0.0650568 0)
(0.000830884 0.0738669 0)
(0.0010285 0.082686 0)
(0.00124312 0.0915047 0)
(0.00147302 0.100313 0)
(0.00171626 0.1091 0)
(0.00197071 0.117854 0)
(0.002234 0.126564 0)
(0.00250357 0.135218 0)
(0.00277667 0.143803 0)
(0.00305037 0.152308 0)
(0.00332159 0.160718 0)
(0.00358711 0.169022 0)
(0.00384363 0.177207 0)
(0.00408776 0.185263 0)
(0.00431611 0.193177 0)
(0.0045253 0.20094 0)
(0.00471202 0.208542 0)
(0.00487309 0.215976 0)
(0.00500548 0.223234 0)
(0.00510641 0.230312 0)
(0.00517338 0.237207 0)
(0.00520421 0.243916 0)
(0.00519712 0.250439 0)
(0.00515074 0.256779 0)
(0.00506414 0.262939 0)
(0.00493691 0.268923 0)
(0.0047691 0.274738 0)
(0.00456129 0.280392 0)
(0.00431451 0.285893 0)
(0.00403028 0.291248 0)
(0.00371055 0.296467 0)
(0.00335764 0.301558 0)
(0.0029742 0.306527 0)
(0.00256311 0.31138 0)
(0.00212746 0.316121 0)
(0.00167043 0.32075 0)
(0.00119523 0.325266 0)
(0.000705036 0.329665 0)
(0.000202907 0.333938 0)
(-0.000308257 0.338074 0)
(-0.000825768 0.342057 0)
(-0.00134718 0.345869 0)
(-0.00187031 0.349487 0)
(-0.00239327 0.352886 0)
(-0.00291442 0.356039 0)
(-0.00343241 0.358913 0)
(-0.00394616 0.361478 0)
(-0.00445482 0.363697 0)
(-0.00495776 0.365537 0)
(-0.00545459 0.366962 0)
(-0.00594512 0.367937 0)
(-0.00642936 0.368428 0)
(-0.00690749 0.368404 0)
(-0.00737992 0.367834 0)
(-0.00784723 0.366694 0)
(-0.00831021 0.364962 0)
(-0.00876982 0.36262 0)
(-0.00922724 0.359659 0)
(-0.00968377 0.356073 0)
(-0.0101409 0.351865 0)
(-0.0106005 0.347044 0)
(-0.0110642 0.341626 0)
(-0.0115337 0.335635 0)
(-0.0120108 0.329101 0)
(-0.0124973 0.322059 0)
(-0.012995 0.314552 0)
(-0.0135052 0.306623 0)
(-0.0140294 0.29832 0)
(-0.0145685 0.289691 0)
(-0.0151234 0.280781 0)
(-0.0156945 0.271636 0)
(-0.0162822 0.262295 0)
(-0.0168865 0.25279 0)
(-0.0175071 0.243148 0)
(-0.018144 0.233388 0)
(-0.0187968 0.223519 0)
(-0.0194656 0.213544 0)
(-0.0201504 0.203458 0)
(-0.0208518 0.193247 0)
(-0.0215708 0.182895 0)
(-0.0223089 0.17238 0)
(-0.0230681 0.161676 0)
(-0.0238514 0.150758 0)
(-0.0246622 0.139602 0)
(-0.0255046 0.128182 0)
(-0.0263834 0.116477 0)
(-0.027304 0.104468 0)
(-0.0282724 0.0921376 0)
(-0.0292951 0.0794735 0)
(-0.0303788 0.0664644 0)
(-0.0315309 0.0531017 0)
(-0.0327588 0.0393787 0)
(4.61918e-06 0.00416447 0)
(2.89442e-05 0.0124686 0)
(8.38095e-05 0.0208402 0)
(0.000167738 0.0292754 0)
(0.000279298 0.0377695 0)
(0.00041812 0.0463175 0)
(0.000583876 0.0549132 0)
(0.000775957 0.0635503 0)
(0.000993523 0.0722213 0)
(0.00123553 0.0809183 0)
(0.00150071 0.0896324 0)
(0.00178761 0.0983542 0)
(0.00209451 0.107074 0)
(0.00241948 0.11578 0)
(0.00276036 0.124461 0)
(0.00311476 0.133106 0)
(0.00348007 0.141702 0)
(0.00385347 0.150236 0)
(0.00423198 0.158695 0)
(0.0046124 0.167067 0)
(0.00499143 0.175338 0)
(0.00536565 0.183496 0)
(0.00573155 0.191529 0)
(0.00608563 0.199425 0)
(0.00642437 0.207173 0)
(0.00674435 0.214764 0)
(0.00704226 0.222189 0)
(0.00731499 0.229441 0)
(0.00755964 0.236514 0)
(0.00777365 0.243405 0)
(0.00795478 0.25011 0)
(0.00810121 0.256631 0)
(0.00821157 0.262966 0)
(0.00828495 0.269121 0)
(0.00832096 0.275098 0)
(0.00831974 0.280903 0)
(0.00828193 0.286544 0)
(0.00820867 0.292026 0)
(0.00810158 0.297359 0)
(0.00796272 0.302548 0)
(0.00779449 0.3076 0)
(0.00759963 0.312521 0)
(0.00738107 0.317316 0)
(0.00714192 0.321985 0)
(0.00688532 0.326527 0)
(0.00661441 0.33094 0)
(0.00633219 0.335217 0)
(0.00604152 0.339346 0)
(0.00574501 0.343315 0)
(0.00544498 0.347106 0)
(0.00514341 0.350697 0)
(0.00484197 0.354066 0)
(0.00454194 0.357186 0)
(0.00424428 0.360025 0)
(0.00394956 0.362553 0)
(0.00365807 0.364737 0)
(0.00336975 0.366542 0)
(0.00308429 0.367933 0)
(0.00280109 0.368876 0)
(0.00251933 0.369337 0)
(0.00223797 0.369285 0)
(0.00195575 0.368692 0)
(0.00167127 0.36753 0)
(0.00138296 0.36578 0)
(0.00108911 0.363424 0)
(0.000787881 0.360452 0)
(0.000477652 0.356858 0)
(0.000157507 0.352646 0)
(-0.000176702 0.347824 0)
(-0.000526843 0.342408 0)
(-0.000892112 0.336421 0)
(-0.00127495 0.329894 0)
(-0.00167678 0.322861 0)
(-0.00209844 0.315363 0)
(-0.00254048 0.307444 0)
(-0.00300308 0.299151 0)
(-0.00348606 0.290531 0)
(-0.00398887 0.281631 0)
(-0.00451068 0.272493 0)
(-0.00505038 0.263157 0)
(-0.00560674 0.253656 0)
(-0.00617847 0.244016 0)
(-0.00676438 0.234257 0)
(-0.00736352 0.224388 0)
(-0.00797531 0.214412 0)
(-0.00859967 0.204324 0)
(-0.00923718 0.194113 0)
(-0.00988914 0.183762 0)
(-0.0105576 0.17325 0)
(-0.0112456 0.162552 0)
(-0.0119568 0.151644 0)
(-0.012696 0.140501 0)
(-0.0134685 0.1291 0)
(-0.0142803 0.117419 0)
(-0.0151384 0.105438 0)
(-0.0160499 0.0931417 0)
(-0.0170227 0.0805168 0)
(-0.0180649 0.0675522 0)
(-0.0191851 0.0542392 0)
(-0.0203919 0.0405708 0)
(5.14995e-06 0.00402623 0)
(3.24506e-05 0.0120666 0)
(9.42717e-05 0.020185 0)
(0.000189186 0.0283781 0)
(0.000315849 0.0366425 0)
(0.000474133 0.0449736 0)
(0.000663986 0.0533665 0)
(0.000885066 0.0618155 0)
(0.0011368 0.070314 0)
(0.00141841 0.078855 0)
(0.00172891 0.0874303 0)
(0.00206709 0.0960312 0)
(0.0024315 0.104648 0)
(0.00282046 0.113271 0)
(0.00323204 0.121889 0)
(0.00366406 0.13049 0)
(0.00411411 0.139062 0)
(0.00457954 0.147593 0)
(0.00505747 0.156068 0)
(0.00554483 0.164477 0)
(0.00603836 0.172803 0)
(0.00653466 0.181035 0)
(0.00703019 0.18916 0)
(0.00752134 0.197164 0)
(0.00800447 0.205035 0)
(0.00847596 0.212762 0)
(0.00893227 0.220335 0)
(0.00936996 0.227745 0)
(0.00978583 0.234985 0)
(0.0101769 0.242047 0)
(0.0105405 0.248927 0)
(0.0108744 0.255623 0)
(0.0111766 0.262133 0)
(0.0114459 0.268458 0)
(0.0116813 0.2746 0)
(0.0118825 0.280562 0)
(0.0120496 0.28635 0)
(0.0121835 0.291968 0)
(0.0122852 0.297424 0)
(0.0123565 0.302723 0)
(0.0123995 0.307871 0)
(0.0124167 0.312874 0)
(0.0124108 0.317736 0)
(0.0123849 0.322459 0)
(0.0123419 0.327043 0)
(0.0122849 0.331485 0)
(0.0122169 0.335779 0)
(0.0121407 0.339917 0)
(0.0120588 0.343887 0)
(0.0119736 0.347671 0)
(0.0118867 0.351252 0)
(0.0117997 0.354607 0)
(0.0117137 0.357709 0)
(0.0116293 0.360531 0)
(0.0115466 0.363041 0)
(0.0114654 0.365208 0)
(0.0113851 0.366998 0)
(0.0113047 0.368377 0)
(0.011223 0.36931 0)
(0.0111384 0.369765 0)
(0.0110491 0.36971 0)
(0.0109531 0.369118 0)
(0.0108481 0.367961 0)
(0.0107319 0.36622 0)
(0.0106022 0.363876 0)
(0.0104565 0.36092 0)
(0.0102924 0.357346 0)
(0.0101082 0.353155 0)
(0.00990096 0.348357 0)
(0.00966899 0.342967 0)
(0.00941136 0.337007 0)
(0.00912673 0.330507 0)
(0.00881433 0.323501 0)
(0.00847397 0.316029 0)
(0.00810596 0.308134 0)
(0.00771112 0.299863 0)
(0.00729074 0.291263 0)
(0.00684656 0.282378 0)
(0.00638066 0.273252 0)
(0.00589537 0.263924 0)
(0.00539309 0.254428 0)
(0.00487617 0.244791 0)
(0.0043467 0.23503 0)
(0.00380634 0.225159 0)
(0.00325616 0.21518 0)
(0.00269645 0.205089 0)
(0.00212663 0.194875 0)
(0.00154511 0.184524 0)
(0.000949312 0.174014 0)
(0.000335726 0.163323 0)
(-0.000300719 0.152426 0)
(-0.000965752 0.1413 0)
(-0.00166558 0.129921 0)
(-0.00240775 0.118268 0)
(-0.00320037 0.106322 0)
(-0.00405206 0.0940671 0)
(-0.00497193 0.0814893 0)
(-0.00596948 0.0685779 0)
(-0.00705448 0.0553239 0)
(-0.00823695 0.0417199 0)
(5.59527e-06 0.0038771 0)
(3.54168e-05 0.0116314 0)
(0.000103161 0.0194732 0)
(0.00020747 0.0274003 0)
(0.000347108 0.0354097 0)
(0.000522188 0.0434981 0)
(0.000732929 0.0516613 0)
(0.000979263 0.0598945 0)
(0.00126089 0.068192 0)
(0.0015773 0.0765476 0)
(0.00192781 0.084954 0)
(0.00231148 0.0934034 0)
(0.00272715 0.101887 0)
(0.0031734 0.110395 0)
(0.00364857 0.118917 0)
(0.00415074 0.127442 0)
(0.00467773 0.135959 0)
(0.00522709 0.144454 0)
(0.00579614 0.152915 0)
(0.00638196 0.161329 0)
(0.00698139 0.169681 0)
(0.0075911 0.177959 0)
(0.00820758 0.186147 0)
(0.0088272 0.194233 0)
(0.00944625 0.202204 0)
(0.010061 0.210046 0)
(0.0106676 0.217747 0)
(0.0112625 0.225298 0)
(0.0118421 0.232689 0)
(0.0124031 0.23991 0)
(0.0129424 0.246955 0)
(0.0134574 0.25382 0)
(0.0139456 0.2605 0)
(0.0144052 0.266994 0)
(0.0148348 0.273302 0)
(0.0152335 0.279424 0)
(0.0156009 0.285365 0)
(0.0159374 0.291127 0)
(0.0162436 0.296715 0)
(0.0165208 0.302135 0)
(0.0167709 0.307392 0)
(0.0169959 0.31249 0)
(0.0171984 0.317433 0)
(0.0173811 0.322224 0)
(0.0175469 0.326863 0)
(0.0176989 0.331348 0)
(0.0178398 0.335675 0)
(0.0179724 0.339836 0)
(0.0180994 0.343821 0)
(0.0182227 0.347615 0)
(0.0183443 0.351199 0)
(0.0184655 0.354555 0)
(0.018587 0.357656 0)
(0.0187094 0.360475 0)
(0.0188324 0.362985 0)
(0.0189555 0.365152 0)
(0.0190775 0.366945 0)
(0.019197 0.36833 0)
(0.019312 0.369274 0)
(0.0194203 0.369743 0)
(0.0195195 0.369708 0)
(0.0196067 0.369139 0)
(0.0196792 0.36801 0)
(0.0197339 0.366301 0)
(0.0197678 0.363994 0)
(0.0197779 0.361077 0)
(0.0197614 0.357546 0)
(0.0197158 0.3534 0)
(0.0196387 0.348649 0)
(0.0195281 0.343306 0)
(0.0193827 0.337394 0)
(0.0192016 0.330939 0)
(0.0189844 0.323977 0)
(0.0187316 0.316547 0)
(0.0184442 0.308689 0)
(0.0181238 0.300451 0)
(0.0177728 0.291879 0)
(0.017394 0.283016 0)
(0.0169905 0.273908 0)
(0.0165658 0.264592 0)
(0.0161235 0.255102 0)
(0.0156667 0.245467 0)
(0.0151985 0.235706 0)
(0.0147213 0.225831 0)
(0.0142365 0.215846 0)
(0.0137448 0.205751 0)
(0.0132456 0.195534 0)
(0.0127371 0.185181 0)
(0.0122163 0.174674 0)
(0.0116789 0.16399 0)
(0.0111192 0.153107 0)
(0.0105306 0.142 0)
(0.0099054 0.130647 0)
(0.00923508 0.119027 0)
(0.00851023 0.107121 0)
(0.00772093 0.094914 0)
(0.00685674 0.0823908 0)
(0.00590684 0.0695408 0)
(0.00486013 0.0563545 0)
(0.00370532 0.0428244 0)
(5.95896e-06 0.00371991 0)
(3.78646e-05 0.0111713 0)
(0.000110536 0.0187187 0)
(0.000222705 0.0263609 0)
(0.000373254 0.0340957 0)
(0.000562537 0.0419205 0)
(0.000791035 0.0498321 0)
(0.00105895 0.0578266 0)
(0.00136626 0.0658992 0)
(0.00171274 0.0740445 0)
(0.00209799 0.0822562 0)
(0.00252138 0.0905272 0)
(0.00298203 0.0988496 0)
(0.00347883 0.107215 0)
(0.00401041 0.115612 0)
(0.00457513 0.124033 0)
(0.00517107 0.132464 0)
(0.00579606 0.140894 0)
(0.00644761 0.149311 0)
(0.00712303 0.157701 0)
(0.00781932 0.16605 0)
(0.00853327 0.174344 0)
(0.00926148 0.18257 0)
(0.0100003 0.190712 0)
(0.0107461 0.198757 0)
(0.011495 0.206691 0)
(0.012243 0.2145 0)
(0.0129865 0.222173 0)
(0.0137215 0.229698 0)
(0.0144444 0.237064 0)
(0.0151518 0.244263 0)
(0.0158406 0.251288 0)
(0.016508 0.258132 0)
(0.0171515 0.264791 0)
(0.0177693 0.271263 0)
(0.0183598 0.277548 0)
(0.0189223 0.283644 0)
(0.0194565 0.289556 0)
(0.0199624 0.295285 0)
(0.0204411 0.300835 0)
(0.0208938 0.306211 0)
(0.0213223 0.311415 0)
(0.0217287 0.316453 0)
(0.0221156 0.321325 0)
(0.0224857 0.326034 0)
(0.0228418 0.330577 0)
(0.0231866 0.334951 0)
(0.023523 0.33915 0)
(0.0238533 0.343164 0)
(0.0241798 0.34698 0)
(0.0245041 0.350583 0)
(0.0248275 0.353953 0)
(0.0251509 0.357067 0)
(0.0254743 0.3599 0)
(0.0257975 0.362423 0)
(0.0261195 0.364607 0)
(0.0264389 0.366419 0)
(0.0267536 0.367827 0)
(0.0270613 0.368798 0)
(0.0273592 0.369301 0)
(0.0276441 0.369303 0)
(0.0279128 0.368777 0)
(0.0281615 0.367697 0)
(0.0283868 0.36604 0)
(0.0285849 0.36379 0)
(0.0287524 0.360935 0)
(0.0288859 0.357467 0)
(0.0289825 0.353388 0)
(0.0290395 0.348703 0)
(0.0290549 0.343427 0)
(0.0290272 0.33758 0)
(0.0289556 0.331189 0)
(0.0288402 0.324287 0)
(0.0286819 0.316911 0)
(0.0284821 0.309104 0)
(0.0282435 0.30091 0)
(0.027969 0.292374 0)
(0.0276624 0.283541 0)
(0.027328 0.274455 0)
(0.0269701 0.265155 0)
(0.0265933 0.255675 0)
(0.0262018 0.246044 0)
(0.0257994 0.236281 0)
(0.0253891 0.226403 0)
(0.024973 0.216413 0)
(0.024552 0.206311 0)
(0.0241257 0.19609 0)
(0.023692 0.185736 0)
(0.0232478 0.175231 0)
(0.0227881 0.164556 0)
(0.0223065 0.153687 0)
(0.0217956 0.142602 0)
(0.0212467 0.131279 0)
(0.0206499 0.119697 0)
(0.0199948 0.107837 0)
(0.0192701 0.0956831 0)
(0.0184641 0.0832215 0)
(0.0175646 0.0704404 0)
(0.0165591 0.0573303 0)
(0.0154352 0.043883 0)
(6.24577e-06 0.00355722 0)
(3.98219e-05 0.0106938 0)
(0.000116476 0.0179341 0)
(0.000235039 0.0252775 0)
(0.000394528 0.0327226 0)
(0.000595524 0.0402678 0)
(0.000838766 0.0479106 0)
(0.00112472 0.0556479 0)
(0.00145363 0.0634761 0)
(0.00182557 0.0713904 0)
(0.00224041 0.0793856 0)
(0.00269784 0.0874554 0)
(0.0031973 0.0955929 0)
(0.00373797 0.10379 0)
(0.0043188 0.112038 0)
(0.00493845 0.120326 0)
(0.00559532 0.128645 0)
(0.00628749 0.136983 0)
(0.00701279 0.145328 0)
(0.00776873 0.153666 0)
(0.00855256 0.161984 0)
(0.00936125 0.170269 0)
(0.0101915 0.178504 0)
(0.0110399 0.186677 0)
(0.0119027 0.194771 0)
(0.012776 0.202773 0)
(0.013656 0.210668 0)
(0.0145386 0.218443 0)
(0.0154199 0.226084 0)
(0.0162959 0.233579 0)
(0.017163 0.240918 0)
(0.0180176 0.248091 0)
(0.0188564 0.255091 0)
(0.0196766 0.261909 0)
(0.0204757 0.268543 0)
(0.0212518 0.274988 0)
(0.0220034 0.281243 0)
(0.0227297 0.287308 0)
(0.0234303 0.293183 0)
(0.0241055 0.298872 0)
(0.0247561 0.304376 0)
(0.0253835 0.309698 0)
(0.0259894 0.314842 0)
(0.0265761 0.319809 0)
(0.027146 0.3246 0)
(0.0277017 0.329214 0)
(0.0282458 0.333649 0)
(0.0287811 0.337899 0)
(0.0293099 0.341957 0)
(0.0298343 0.34581 0)
(0.0303562 0.349444 0)
(0.0308767 0.352842 0)
(0.0313966 0.355983 0)
(0.0319159 0.358841 0)
(0.0324343 0.361392 0)
(0.0329504 0.363605 0)
(0.0334627 0.365451 0)
(0.0339688 0.366897 0)
(0.0344658 0.367911 0)
(0.0349505 0.368462 0)
(0.0354192 0.368519 0)
(0.035868 0.368053 0)
(0.0362926 0.367038 0)
(0.0366889 0.365453 0)
(0.0370527 0.363278 0)
(0.0373798 0.360502 0)
(0.0376665 0.357117 0)
(0.0379093 0.353121 0)
(0.0381053 0.348521 0)
(0.0382521 0.34333 0)
(0.0383484 0.337565 0)
(0.0383932 0.331253 0)
(0.0383868 0.324426 0)
(0.0383304 0.317119 0)
(0.038226 0.309374 0)
(0.0380766 0.301234 0)
(0.0378861 0.292743 0)
(0.0376591 0.283948 0)
(0.0374005 0.274891 0)
(0.0371157 0.265611 0)
(0.0368102 0.256144 0)
(0.036489 0.246518 0)
(0.0361567 0.236757 0)
(0.035817 0.226875 0)
(0.0354726 0.21688 0)
(0.0351247 0.206772 0)
(0.034773 0.196547 0)
(0.0344157 0.186191 0)
(0.0340492 0.17569 0)
(0.0336681 0.165024 0)
(0.0332656 0.154171 0)
(0.0328334 0.14311 0)
(0.0323617 0.13182 0)
(0.0318398 0.120279 0)
(0.0312559 0.10847 0)
(0.0305977 0.0963755 0)
(0.029852 0.0839817 0)
(0.0290053 0.0712768 0)
(0.028044 0.0582505 0)
(0.026954 0.0448942 0)
(6.46109e-06 0.00339132 0)
(4.13206e-05 0.0102058 0)
(0.000121069 0.0171306 0)
(0.000244648 0.0241656 0)
(0.000411214 0.0313105 0)
(0.000621566 0.0385643 0)
(0.000876687 0.0459253 0)
(0.00117729 0.0533914 0)
(0.0015239 0.0609596 0)
(0.00191685 0.0686263 0)
(0.00235633 0.0763871 0)
(0.00284231 0.0842366 0)
(0.00337455 0.0921687 0)
(0.00395256 0.100176 0)
(0.0045756 0.108252 0)
(0.00524268 0.116385 0)
(0.00595249 0.124568 0)
(0.00670345 0.132789 0)
(0.00749369 0.141035 0)
(0.008321 0.149296 0)
(0.00918291 0.157557 0)
(0.0100766 0.165805 0)
(0.010999 0.174025 0)
(0.0119468 0.182202 0)
(0.0129165 0.190321 0)
(0.0139041 0.198367 0)
(0.0149059 0.206325 0)
(0.0159177 0.21418 0)
(0.0169355 0.221918 0)
(0.0179551 0.229525 0)
(0.0189726 0.236988 0)
(0.0199841 0.244297 0)
(0.0209859 0.25144 0)
(0.0219748 0.25841 0)
(0.0229478 0.265199 0)
(0.0239024 0.271802 0)
(0.0248365 0.278215 0)
(0.0257487 0.284434 0)
(0.0266382 0.290461 0)
(0.0275045 0.296293 0)
(0.0283481 0.301933 0)
(0.0291696 0.307383 0)
(0.0299705 0.312643 0)
(0.0307526 0.317716 0)
(0.0315179 0.322602 0)
(0.0322688 0.327301 0)
(0.0330078 0.33181 0)
(0.0337375 0.336125 0)
(0.0344602 0.340239 0)
(0.035178 0.344142 0)
(0.0358926 0.34782 0)
(0.0366054 0.351259 0)
(0.0373171 0.354437 0)
(0.0380277 0.357334 0)
(0.0387366 0.359924 0)
(0.0394427 0.362179 0)
(0.040144 0.36407 0)
(0.040838 0.365567 0)
(0.0415214 0.366637 0)
(0.0421906 0.36725 0)
(0.0428415 0.367375 0)
(0.0434696 0.366984 0)
(0.0440703 0.36605 0)
(0.0446386 0.364551 0)
(0.0451699 0.362467 0)
(0.0456595 0.359787 0)
(0.046103 0.3565 0)
(0.0464966 0.352605 0)
(0.046837 0.348106 0)
(0.0471215 0.343014 0)
(0.0473484 0.337347 0)
(0.047517 0.331128 0)
(0.0476274 0.324389 0)
(0.0476809 0.317164 0)
(0.0476799 0.309492 0)
(0.047628 0.301417 0)
(0.0475294 0.292982 0)
(0.0473895 0.284232 0)
(0.0472139 0.27521 0)
(0.0470088 0.265956 0)
(0.0467804 0.256506 0)
(0.0465346 0.246889 0)
(0.0462769 0.237131 0)
(0.0460115 0.227247 0)
(0.0457417 0.217248 0)
(0.0454691 0.207135 0)
(0.0451939 0.196906 0)
(0.0449142 0.18655 0)
(0.0446262 0.176053 0)
(0.0443245 0.165397 0)
(0.0440016 0.154562 0)
(0.0436485 0.143528 0)
(0.0432548 0.132273 0)
(0.0428086 0.120777 0)
(0.0422972 0.109023 0)
(0.0417069 0.0969926 0)
(0.0410234 0.0846725 0)
(0.0402319 0.07205 0)
(0.0393172 0.0591146 0)
(0.038264 0.0458571 0)
(6.61063e-06 0.00322418 0)
(4.23955e-05 0.00971317 0)
(0.000124415 0.016318 0)
(0.000251726 0.0230392 0)
(0.000423629 0.0298772 0)
(0.00064113 0.0368317 0)
(0.000905436 0.0439019 0)
(0.00121751 0.0510864 0)
(0.00157811 0.0583831 0)
(0.00198787 0.0657892 0)
(0.00244724 0.0733013 0)
(0.00295651 0.080915 0)
(0.00351574 0.088625 0)
(0.00412477 0.0964252 0)
(0.0047832 0.104309 0)
(0.00549036 0.112267 0)
(0.0062453 0.120292 0)
(0.00704677 0.128372 0)
(0.00789322 0.136498 0)
(0.00878279 0.144657 0)
(0.00971328 0.152836 0)
(0.0106822 0.161023 0)
(0.0116867 0.169202 0)
(0.0127237 0.177359 0)
(0.0137897 0.185478 0)
(0.0148812 0.193545 0)
(0.0159942 0.201543 0)
(0.0171248 0.209456 0)
(0.0182687 0.21727 0)
(0.0194217 0.224969 0)
(0.0205798 0.23254 0)
(0.0217386 0.239969 0)
(0.0228943 0.247244 0)
(0.0240431 0.254355 0)
(0.0251817 0.261292 0)
(0.0263069 0.268046 0)
(0.0274163 0.274613 0)
(0.0285077 0.280988 0)
(0.0295797 0.287166 0)
(0.0306313 0.293147 0)
(0.0316623 0.298929 0)
(0.0326729 0.304513 0)
(0.033664 0.3099 0)
(0.0346368 0.315089 0)
(0.0355931 0.320081 0)
(0.036535 0.324876 0)
(0.0374648 0.329472 0)
(0.0383847 0.333864 0)
(0.039297 0.338046 0)
(0.0402038 0.342011 0)
(0.0411069 0.345745 0)
(0.0420076 0.349236 0)
(0.0429067 0.352464 0)
(0.0438043 0.35541 0)
(0.0446998 0.35805 0)
(0.0455919 0.360358 0)
(0.0464787 0.362305 0)
(0.0473574 0.363863 0)
(0.0482247 0.365 0)
(0.0490765 0.365686 0)
(0.0499083 0.365891 0)
(0.0507154 0.365586 0)
(0.0514924 0.364746 0)
(0.052234 0.363346 0)
(0.052935 0.361367 0)
(0.0535902 0.358795 0)
(0.0541947 0.355621 0)
(0.0547441 0.35184 0)
(0.0552346 0.347456 0)
(0.0556633 0.342478 0)
(0.0560282 0.336922 0)
(0.0563282 0.330811 0)
(0.0565635 0.324172 0)
(0.0567354 0.317041 0)
(0.0568466 0.309454 0)
(0.0569006 0.301454 0)
(0.0569024 0.293084 0)
(0.0568575 0.284387 0)
(0.0567725 0.275408 0)
(0.056654 0.266186 0)
(0.0565091 0.256758 0)
(0.0563443 0.247155 0)
(0.0561658 0.237403 0)
(0.0559786 0.227521 0)
(0.0557865 0.217519 0)
(0.0555918 0.207403 0)
(0.0553947 0.197171 0)
(0.0551937 0.186815 0)
(0.0549852 0.176323 0)
(0.0547633 0.165678 0)
(0.0545203 0.154863 0)
(0.0542468 0.143857 0)
(0.0539314 0.132641 0)
(0.0535616 0.121193 0)
(0.0531235 0.109498 0)
(0.0526023 0.0975362 0)
(0.0519826 0.0852949 0)
(0.0512481 0.0727607 0)
(0.0503824 0.0599227 0)
(0.0493687 0.046771 0)
(6.70031e-06 0.00305754 0)
(4.30828e-05 0.00922105 0)
(0.000126617 0.0155049 0)
(0.000256478 0.0219104 0)
(0.000432112 0.0284383 0)
(0.000654713 0.0350892 0)
(0.000925701 0.041863 0)
(0.00124626 0.0487591 0)
(0.0016174 0.0557762 0)
(0.00204 0.0629123 0)
(0.00251479 0.070165 0)
(0.00304236 0.0775306 0)
(0.00362307 0.0850049 0)
(0.0042571 0.0925828 0)
(0.00494435 0.100258 0)
(0.00568452 0.108024 0)
(0.00647701 0.115871 0)
(0.00732092 0.123792 0)
(0.00821504 0.131776 0)
(0.00915787 0.139811 0)
(0.0101476 0.147886 0)
(0.0111819 0.155988 0)
(0.0122584 0.164103 0)
(0.0133741 0.172216 0)
(0.014526 0.180312 0)
(0.0157106 0.188375 0)
(0.016924 0.19639 0)
(0.0181625 0.20434 0)
(0.0194217 0.212209 0)
(0.0206976 0.219981 0)
(0.0219857 0.22764 0)
(0.0232817 0.235173 0)
(0.0245814 0.242565 0)
(0.0258807 0.249804 0)
(0.0271758 0.256878 0)
(0.0284632 0.263777 0)
(0.0297397 0.270493 0)
(0.0310029 0.277018 0)
(0.0322504 0.283348 0)
(0.033481 0.289479 0)
(0.0346935 0.295407 0)
(0.0358876 0.301132 0)
(0.0370637 0.306651 0)
(0.0382226 0.311966 0)
(0.0393655 0.317074 0)
(0.040494 0.321976 0)
(0.0416103 0.326669 0)
(0.0427163 0.331149 0)
(0.0438142 0.335412 0)
(0.0449061 0.33945 0)
(0.0459936 0.343252 0)
(0.0470783 0.346805 0)
(0.0481608 0.350094 0)
(0.0492414 0.353099 0)
(0.0503197 0.355798 0)
(0.0513944 0.358168 0)
(0.0524634 0.360181 0)
(0.0535241 0.361808 0)
(0.0545728 0.363021 0)
(0.0556054 0.36379 0)
(0.0566172 0.364085 0)
(0.0576028 0.363876 0)
(0.0585568 0.363139 0)
(0.0594732 0.361849 0)
(0.0603463 0.359986 0)
(0.0611704 0.357535 0)
(0.06194 0.354485 0)
(0.0626503 0.350831 0)
(0.063297 0.346574 0)
(0.0638768 0.341722 0)
(0.0643871 0.33629 0)
(0.0648266 0.330297 0)
(0.0651954 0.323772 0)
(0.0654946 0.316745 0)
(0.0657268 0.309254 0)
(0.0658959 0.301339 0)
(0.0660068 0.293043 0)
(0.0660657 0.284409 0)
(0.0660793 0.275481 0)
(0.066055 0.266298 0)
(0.0660003 0.256898 0)
(0.0659225 0.247314 0)
(0.0658284 0.237573 0)
(0.0657238 0.227695 0)
(0.0656129 0.217694 0)
(0.0654987 0.207577 0)
(0.0653818 0.197344 0)
(0.0652609 0.18699 0)
(0.0651326 0.176504 0)
(0.0649911 0.165873 0)
(0.0648284 0.155079 0)
(0.0646345 0.144103 0)
(0.0643978 0.132927 0)
(0.0641046 0.121531 0)
(0.0637404 0.109897 0)
(0.0632893 0.0980082 0)
(0.0627345 0.0858502 0)
(0.0620587 0.0734096 0)
(0.0612441 0.0606748 0)
(0.0602724 0.0476353 0)
(6.73616e-06 0.00289286 0)
(4.34194e-05 0.00873386 0)
(0.00012778 0.0146988 0)
(0.000259114 0.0207894 0)
(0.00043701 0.0270073 0)
(0.000662834 0.0333534 0)
(0.000938198 0.0398284 0)
(0.00126449 0.0464324 0)
(0.00164295 0.0531649 0)
(0.00207471 0.0600248 0)
(0.00256075 0.0670103 0)
(0.00310194 0.0741189 0)
(0.00369895 0.0813471 0)
(0.00435225 0.0886908 0)
(0.00506211 0.0961446 0)
(0.00582854 0.103703 0)
(0.0066513 0.111358 0)
(0.00752985 0.119101 0)
(0.00846338 0.126924 0)
(0.00945072 0.134817 0)
(0.0104904 0.142767 0)
(0.0115805 0.150763 0)
(0.012719 0.158791 0)
(0.0139032 0.166838 0)
(0.0151303 0.174888 0)
(0.016397 0.182925 0)
(0.0176999 0.190934 0)
(0.0190351 0.198898 0)
(0.0203986 0.2068 0)
(0.0217862 0.214624 0)
(0.0231934 0.222353 0)
(0.0246158 0.229971 0)
(0.0260491 0.237464 0)
(0.0274888 0.244817 0)
(0.0289308 0.252015 0)
(0.0303711 0.259049 0)
(0.0318062 0.265906 0)
(0.0332328 0.272577 0)
(0.0346484 0.279056 0)
(0.0360507 0.285336 0)
(0.0374382 0.291411 0)
(0.0388099 0.29728 0)
(0.0401656 0.302938 0)
(0.0415053 0.308384 0)
(0.04283 0.313617 0)
(0.0441408 0.318635 0)
(0.0454394 0.323435 0)
(0.0467275 0.328014 0)
(0.0480071 0.332368 0)
(0.0492802 0.336489 0)
(0.0505484 0.340369 0)
(0.0518132 0.343995 0)
(0.0530755 0.347354 0)
(0.0543357 0.350427 0)
(0.0555932 0.353194 0)
(0.0568471 0.355634 0)
(0.0580954 0.35772 0)
(0.0593354 0.359426 0)
(0.0605634 0.360722 0)
(0.0617753 0.361581 0)
(0.062966 0.361972 0)
(0.06413 0.361869 0)
(0.0652614 0.361243 0)
(0.0663541 0.360071 0)
(0.0674016 0.358333 0)
(0.068398 0.356012 0)
(0.0693371 0.353095 0)
(0.0702135 0.349578 0)
(0.0710225 0.345459 0)
(0.0717601 0.340744 0)
(0.0724235 0.335446 0)
(0.0730109 0.329584 0)
(0.073522 0.323182 0)
(0.0739577 0.316271 0)
(0.0743204 0.308887 0)
(0.0746139 0.301068 0)
(0.0748434 0.292856 0)
(0.075015 0.284293 0)
(0.0751359 0.275424 0)
(0.0752138 0.266287 0)
(0.0752567 0.256923 0)
(0.0752726 0.247364 0)
(0.0752688 0.237639 0)
(0.0752516 0.22777 0)
(0.075226 0.217773 0)
(0.0751955 0.207658 0)
(0.0751612 0.197427 0)
(0.0751222 0.187077 0)
(0.0750754 0.176599 0)
(0.0750149 0.165983 0)
(0.0749328 0.155212 0)
(0.0748188 0.144269 0)
(0.0746607 0.133135 0)
(0.0744445 0.121792 0)
(0.0741545 0.110223 0)
(0.0737741 0.0984109 0)
(0.0732853 0.0863403 0)
(0.0726695 0.0739978 0)
(0.0719077 0.0613713 0)
(0.0709802 0.0484499 0)
(6.72406e-06 0.00273137 0)
(4.34422e-05 0.00825533 0)
(0.000128012 0.0139059 0)
(0.000259847 0.0196853 0)
(0.000438674 0.0255956 0)
(0.000666015 0.0316384 0)
(0.000943654 0.0378149 0)
(0.00127317 0.044126 0)
(0.00165601 0.0505719 0)
(0.00209352 0.0571521 0)
(0.00258695 0.0638658 0)
(0.00313741 0.0707112 0)
(0.00374587 0.0776858 0)
(0.0044131 0.0847862 0)
(0.00513969 0.0920084 0)
(0.005926 0.099347 0)
(0.00677212 0.106796 0)
(0.0076779 0.114348 0)
(0.00864288 0.121995 0)
(0.00966629 0.129727 0)
(0.010747 0.137534 0)
(0.0118836 0.145405 0)
(0.0130742 0.153326 0)
(0.0143166 0.161285 0)
(0.0156084 0.169267 0)
(0.0169465 0.177256 0)
(0.0183277 0.185237 0)
(0.0197485 0.193193 0)