/*--------------------------------*- C++ -*----------------------------------*\
| =========                 |                                                 |
| \\      /  F ield         | OpenFOAM: The Open Source CFD Toolbox           |
|  \\    /   O peration     | Version:  2406                                  |
|   \\  /    A nd           | Website:  www.openfoam.com                      |
|    \\/     M anipulation  |                                                 |
\*---------------------------------------------------------------------------*/
FoamFile
{
    version     2.0;
    format      ascii;
    arch        "LSB;label=32;scalar=64";
    class       volScalarField;
    location    "6";
    object      p;
}
// * * * * * * * * * * * * * * * * * * * * * * * * * * * * * * * * * * * * * //

dimensions      [0 2 -2 0 0 0 0];

internalField   nonuniform List<scalar> 
40000
(
-9.21591e-09
-7.88441e-05
-0.000157583
-0.000231612
-0.000305648
-0.000381035
-0.000457513
-0.000534883
-0.000613122
-0.000692229
-0.000772193
-0.000852992
-0.000934605
-0.00101701
-0.00110019
-0.00118412
-0.00126877
-0.00135412
-0.00144014
-0.00152682
-0.00161412
-0.00170201
-0.00179048
-0.0018795
-0.00196904
-0.00205909
-0.00214961
-0.0022406
-0.00233204
-0.0024239
-0.00251619
-0.00260889
-0.002702
-0.00279553
-0.00288948
-0.00298388
-0.00307873
-0.00317408
-0.00326996
-0.00336642
-0.00346352
-0.00356133
-0.00365993
-0.00375943
-0.00385994
-0.00396158
-0.00406451
-0.00416888
-0.00427488
-0.00438271
-0.00449259
-0.00460478
-0.00471956
-0.0048372
-0.00495805
-0.00508244
-0.00521076
-0.00534342
-0.00548085
-0.00562352
-0.00577194
-0.00592661
-0.00608812
-0.00625704
-0.006434
-0.00661964
-0.00681464
-0.0070197
-0.00723555
-0.00746293
-0.00770261
-0.00795535
-0.00822193
-0.00850314
-0.00879973
-0.00911246
-0.00944205
-0.00978916
-0.0101544
-0.0105383
-0.0109413
-0.0113637
-0.0118055
-0.0122668
-0.0127472
-0.0132461
-0.0137626
-0.0142953
-0.0148423
-0.0154012
-0.0159689
-0.0165417
-0.0171147
-0.0176823
-0.0182376
-0.0187724
-0.0192773
-0.0197411
-0.0201511
-0.0204925
-0.00151315
-0.00159127
-0.00166931
-0.00174269
-0.00181611
-0.00189089
-0.00196677
-0.00204356
-0.00212123
-0.00219978
-0.00227921
-0.00235949
-0.00244059
-0.00252252
-0.00260523
-0.00268871
-0.00277293
-0.00285788
-0.00294352
-0.00302985
-0.00311682
-0.00320442
-0.00329262
-0.0033814
-0.00347074
-0.00356062
-0.00365102
-0.00374192
-0.0038333
-0.00392517
-0.0040175
-0.0041103
-0.00420356
-0.00429729
-0.00439151
-0.00448624
-0.00458149
-0.00467731
-0.00477375
-0.00487084
-0.00496867
-0.00506731
-0.00516685
-0.0052674
-0.00536907
-0.00547202
-0.00557639
-0.00568237
-0.00579014
-0.00589993
-0.00601198
-0.00612655
-0.00624394
-0.00636446
-0.00648847
-0.00661634
-0.00674847
-0.00688531
-0.00702733
-0.00717502
-0.00732893
-0.00748963
-0.00765772
-0.00783384
-0.00801867
-0.00821292
-0.00841732
-0.00863264
-0.00885968
-0.00909926
-0.00935224
-0.00961946
-0.0099018
-0.0102002
-0.0105154
-0.0108483
-0.0111999
-0.0115708
-0.0119618
-0.0123736
-0.0128067
-0.0132616
-0.0137385
-0.0142376
-0.0147587
-0.0153012
-0.0158644
-0.0164471
-0.0170475
-0.0176633
-0.0182915
-0.0189283
-0.019569
-0.0202077
-0.0208375
-0.0214501
-0.0220354
-0.0225821
-0.0230766
-0.0235034
-0.00305378
-0.00313117
-0.00320847
-0.00328119
-0.00335396
-0.00342809
-0.00350334
-0.0035795
-0.00365656
-0.00373452
-0.00381336
-0.00389307
-0.00397363
-0.00405502
-0.00413721
-0.0042202
-0.00430394
-0.00438844
-0.00447365
-0.00455957
-0.00464616
-0.0047334
-0.00482128
-0.00490976
-0.00499884
-0.00508848
-0.00517868
-0.00526941
-0.00536067
-0.00545244
-0.00554472
-0.00563752
-0.00573082
-0.00582464
-0.005919
-0.00601392
-0.00610942
-0.00620555
-0.00630236
-0.0063999
-0.00649825
-0.00659749
-0.00669771
-0.00679904
-0.0069016
-0.00700554
-0.00711102
-0.00721824
-0.0073274
-0.00743873
-0.00755249
-0.00766896
-0.00778846
-0.00791132
-0.00803791
-0.00816864
-0.00830393
-0.00844426
-0.00859012
-0.00874207
-0.00890067
-0.00906654
-0.00924033
-0.00942273
-0.00961448
-0.00981633
-0.0100291
-0.0102536
-0.0104907
-0.0107414
-0.0110065
-0.0112871
-0.011584
-0.0118982
-0.0122309
-0.0125828
-0.0129551
-0.0133485
-0.0137641
-0.0142026
-0.0146647
-0.015151
-0.0156619
-0.0161977
-0.0167584
-0.0173437
-0.0179529
-0.0185849
-0.0192382
-0.0199105
-0.020599
-0.0212998
-0.0220083
-0.0227186
-0.0234237
-0.024115
-0.0247823
-0.0254137
-0.0259952
-0.0265105
-0.00461653
-0.00469317
-0.00476974
-0.00484178
-0.00491389
-0.00498738
-0.00506198
-0.00513752
-0.00521396
-0.00529132
-0.00536957
-0.0054487
-0.0055287
-0.00560955
-0.00569122
-0.00577369
-0.00585696
-0.00594098
-0.00602575
-0.00611124
-0.00619743
-0.0062843
-0.00637182
-0.00645998
-0.00654875
-0.00663812
-0.00672807
-0.00681859
-0.00690966
-0.00700128
-0.00709344
-0.00718614
-0.00727939
-0.0073732
-0.00746758
-0.00756255
-0.00765816
-0.00775444
-0.00785144
-0.00794922
-0.00804787
-0.00814746
-0.00824811
-0.00834993
-0.00845305
-0.00855763
-0.00866385
-0.0087719
-0.008882
-0.0089944
-0.00910936
-0.00922719
-0.0093482
-0.00947276
-0.00960127
-0.00973413
-0.00987182
-0.0100148
-0.0101637
-0.010319
-0.0104813
-0.0106514
-0.0108298
-0.0110174
-0.011215
-0.0114233
-0.0116432
-0.0118756
-0.0121215
-0.0123819
-0.0126578
-0.0129502
-0.0132603
-0.013589
-0.0139376
-0.014307
-0.0146985
-0.015113
-0.0155516
-0.0160152
-0.0165048
-0.017021
-0.0175645
-0.0181356
-0.0187346
-0.0193613
-0.0200153
-0.0206955
-0.0214006
-0.0221285
-0.0228764
-0.0236406
-0.0244165
-0.0251982
-0.0259786
-0.0267491
-0.027499
-0.0282162
-0.0288862
-0.0294919
-0.00619634
-0.00627226
-0.00634812
-0.00641952
-0.006491
-0.00656386
-0.00663786
-0.00671279
-0.00678865
-0.00686543
-0.00694312
-0.00702171
-0.00710118
-0.0071815
-0.00726268
-0.00734467
-0.00742747
-0.00751106
-0.0075954
-0.00768048
-0.00776628
-0.00785278
-0.00793996
-0.00802779
-0.00811626
-0.00820534
-0.00829503
-0.0083853
-0.00847615
-0.00856757
-0.00865955
-0.0087521
-0.00884521
-0.0089389
-0.00903319
-0.0091281
-0.00922366
-0.00931992
-0.00941693
-0.00951475
-0.00961346
-0.00971315
-0.00981393
-0.00991591
-0.0100192
-0.0101241
-0.0102306
-0.0103391
-0.0104496
-0.0105625
-0.0106781
-0.0107967
-0.0109185
-0.0110441
-0.0111737
-0.0113079
-0.0114471
-0.0115919
-0.0117428
-0.0119004
-0.0120654
-0.0122385
-0.0124204
-0.012612
-0.012814
-0.0130274
-0.013253
-0.0134919
-0.0137452
-0.0140137
-0.0142988
-0.0146015
-0.014923
-0.0152645
-0.0156273
-0.0160125
-0.0164213
-0.0168551
-0.0173149
-0.017802
-0.0183172
-0.0188615
-0.0194358
-0.0200405
-0.0206761
-0.0213426
-0.0220396
-0.0227665
-0.0235219
-0.024304
-0.02511
-0.0259365
-0.0267788
-0.0276311
-0.0284862
-0.0293353
-0.0301678
-0.0309711
-0.0317302
-0.0324275
-0.00778851
-0.00786378
-0.007939
-0.00800982
-0.00808074
-0.00815306
-0.00822651
-0.00830091
-0.00837625
-0.00845252
-0.00852972
-0.00860783
-0.00868684
-0.00876672
-0.00884746
-0.00892904
-0.00901144
-0.00909463
-0.00917861
-0.00926333
-0.0093488
-0.00943497
-0.00952184
-0.00960938
-0.00969756
-0.00978638
-0.00987581
-0.00996584
-0.0100565
-0.0101476
-0.0102394
-0.0103318
-0.0104247
-0.0105182
-0.0106122
-0.010707
-0.0108023
-0.0108984
-0.0109952
-0.0110929
-0.0111914
-0.0112909
-0.0113915
-0.0114933
-0.0115964
-0.0117011
-0.0118075
-0.0119158
-0.0120262
-0.0121391
-0.0122546
-0.0123732
-0.0124952
-0.0126209
-0.0127508
-0.0128854
-0.0130252
-0.0131707
-0.0133225
-0.0134813
-0.0136477
-0.0138226
-0.0140066
-0.0142007
-0.0144058
-0.0146227
-0.0148525
-0.0150963
-0.0153551
-0.0156302
-0.0159226
-0.0162338
-0.0165649
-0.0169173
-0.0172922
-0.0176912
-0.0181155
-0.0185665
-0.0190456
-0.0195539
-0.0200927
-0.0206631
-0.0212661
-0.0219023
-0.0225725
-0.0232767
-0.0240148
-0.0247864
-0.0255903
-0.0264247
-0.0272872
-0.0281742
-0.0290813
-0.0300028
-0.0309313
-0.0318581
-0.0327724
-0.0336612
-0.0345092
-0.0352983
-0.00938881
-0.00946354
-0.00953824
-0.00960858
-0.00967904
-0.00975091
-0.00982392
-0.0098979
-0.00997282
-0.0100487
-0.0101255
-0.0102033
-0.0102819
-0.0103614
-0.0104418
-0.0105231
-0.0106052
-0.0106881
-0.0107718
-0.0108563
-0.0109415
-0.0110274
-0.011114
-0.0112013
-0.0112893
-0.0113779
-0.0114671
-0.0115569
-0.0116473
-0.0117383
-0.0118298
-0.0119219
-0.0120145
-0.0121078
-0.0122016
-0.012296
-0.012391
-0.0124867
-0.0125831
-0.0126803
-0.0127784
-0.0128774
-0.0129775
-0.0130787
-0.0131813
-0.0132853
-0.0133911
-0.0134987
-0.0136084
-0.0137205
-0.0138353
-0.0139531
-0.0140743
-0.0141993
-0.0143285
-0.0144625
-0.0146017
-0.0147468
-0.0148983
-0.015057
-0.0152235
-0.0153987
-0.0155834
-0.0157785
-0.015985
-0.0162038
-0.016436
-0.0166829
-0.0169455
-0.0172251
-0.017523
-0.0178405
-0.0181792
-0.0185403
-0.0189254
-0.019336
-0.0197735
-0.0202395
-0.0207355
-0.0212628
-0.021823
-0.0224171
-0.0230465
-0.0237119
-0.0244143
-0.0251539
-0.0259309
-0.026745
-0.027595
-0.0284796
-0.0293963
-0.0303418
-0.0313118
-0.0323005
-0.0333007
-0.0343035
-0.0352981
-0.0362712
-0.0372071
-0.0380874
-0.0109934
-0.0110677
-0.0111421
-0.0112121
-0.0112822
-0.0113538
-0.0114265
-0.0115002
-0.0115749
-0.0116505
-0.0117271
-0.0118046
-0.011883
-0.0119624
-0.0120426
-0.0121237
-0.0122056
-0.0122883
-0.0123719
-0.0124562
-0.0125413
-0.0126271
-0.0127135
-0.0128007
-0.0128885
-0.012977
-0.013066
-0.0131556
-0.0132458
-0.0133366
-0.0134279
-0.0135197
-0.0136121
-0.0137049
-0.0137984
-0.0138923
-0.0139869
-0.0140821
-0.0141779
-0.0142744
-0.0143717
-0.0144699
-0.0145691
-0.0146694
-0.0147709
-0.0148738
-0.0149783
-0.0150845
-0.0151929
-0.0153035
-0.0154167
-0.0155329
-0.0156525
-0.0157757
-0.0159032
-0.0160355
-0.0161729
-0.0163163
-0.0164662
-0.0166233
-0.0167885
-0.0169625
-0.0171462
-0.0173406
-0.0175467
-0.0177656
-0.0179984
-0.0182463
-0.0185106
-0.0187927
-0.0190939
-0.0194158
-0.0197597
-0.0201273
-0.0205202
-0.02094
-0.0213884
-0.021867
-0.0223774
-0.0229214
-0.0235003
-0.0241157
-0.0247689
-0.0254611
-0.0261931
-0.0269657
-0.027779
-0.0286329
-0.0295266
-0.0304588
-0.0314273
-0.0324289
-0.0334592
-0.0345128
-0.0355824
-0.0366591
-0.0377319
-0.0387874
-0.0398096
-0.0407796
-0.0125989
-0.0126731
-0.0127472
-0.0128171
-0.0128871
-0.0129585
-0.0130312
-0.0131048
-0.0131793
-0.0132549
-0.0133314
-0.0134089
-0.0134873
-0.0135666
-0.0136468
-0.0137279
-0.0138099
-0.0138926
-0.0139762
-0.0140605
-0.0141456
-0.0142314
-0.0143179
-0.014405
-0.0144928
-0.0145812
-0.0146701
-0.0147597
-0.0148497
-0.0149403
-0.0150314
-0.0151229
-0.0152149
-0.0153074
-0.0154003
-0.0154938
-0.0155877
-0.0156821
-0.0157771
-0.0158727
-0.015969
-0.016066
-0.0161639
-0.0162627
-0.0163627
-0.0164638
-0.0165665
-0.0166708
-0.0167769
-0.0168853
-0.0169961
-0.0171097
-0.0172266
-0.0173471
-0.0174717
-0.0176009
-0.0177354
-0.0178757
-0.0180225
-0.0181765
-0.0183387
-0.0185098
-0.0186908
-0.0188827
-0.0190865
-0.0193035
-0.0195348
-0.0197817
-0.0200456
-0.020328
-0.0206302
-0.020954
-0.0213009
-0.0216726
-0.0220708
-0.0224974
-0.0229541
-0.0234427
-0.023965
-0.0245229
-0.025118
-0.025752
-0.0264264
-0.0271425
-0.0279015
-0.0287042
-0.0295511
-0.0304422
-0.0313768
-0.0323539
-0.0333714
-0.0344262
-0.0355143
-0.03663
-0.0377663
-0.0389142
-0.0400627
-0.0411982
-0.0423044
-0.043362
-0.0142024
-0.0142766
-0.0143509
-0.0144208
-0.0144909
-0.0145624
-0.0146352
-0.0147089
-0.0147837
-0.0148594
-0.0149361
-0.0150137
-0.0150923
-0.0151719
-0.0152523
-0.0153336
-0.0154157
-0.0154987
-0.0155825
-0.015667
-0.0157523
-0.0158382
-0.0159249
-0.0160122
-0.0161
-0.0161885
-0.0162775
-0.016367
-0.016457
-0.0165474
-0.0166383
-0.0167296
-0.0168212
-0.0169132
-0.0170056
-0.0170984
-0.0171915
-0.017285
-0.0173789
-0.0174733
-0.0175682
-0.0176636
-0.0177598
-0.0178567
-0.0179545
-0.0180534
-0.0181535
-0.018255
-0.0183583
-0.0184635
-0.0185709
-0.018681
-0.0187941
-0.0189106
-0.019031
-0.019156
-0.019286
-0.0194217
-0.0195638
-0.0197132
-0.0198706
-0.020037
-0.0202134
-0.0204008
-0.0206004
-0.0208134
-0.021041
-0.0212847
-0.0215459
-0.0218262
-0.0221271
-0.0224503
-0.0227977
-0.0231709
-0.0235719
-0.0240026
-0.024465
-0.0249609
-0.0254925
-0.0260616
-0.0266701
-0.0273199
-0.0280127
-0.02875
-0.0295331
-0.0303632
-0.0312407
-0.032166
-0.0331387
-0.0341577
-0.0352212
-0.0363263
-0.037469
-0.0386439
-0.0398439
-0.0410601
-0.0422813
-0.0434938
-0.0446813
-0.0458238
-0.0158015
-0.015876
-0.0159506
-0.0160208
-0.0160913
-0.0161632
-0.0162363
-0.0163105
-0.0163856
-0.0164618
-0.0165389
-0.016617
-0.0166961
-0.0167761
-0.016857
-0.0169387
-0.0170213
-0.0171048
-0.017189
-0.0172739
-0.0173596
-0.017446
-0.017533
-0.0176206
-0.0177087
-0.0177974
-0.0178865
-0.0179761
-0.0180662
-0.0181565
-0.0182472
-0.0183382
-0.0184295
-0.018521
-0.0186127
-0.0187046
-0.0187968
-0.0188892
-0.0189817
-0.0190746
-0.0191677
-0.0192612
-0.0193552
-0.0194496
-0.0195447
-0.0196406
-0.0197375
-0.0198355
-0.0199349
-0.020036
-0.020139
-0.0202444
-0.0203525
-0.0204638
-0.0205788
-0.0206979
-0.020822
-0.0209515
-0.0210873
-0.0212303
-0.0213811
-0.0215409
-0.0217107
-0.0218916
-0.0220847
-0.0222915
-0.0225132
-0.0227514
-0.0230075
-0.0232832
-0.0235803
-0.0239005
-0.0242457
-0.0246178
-0.0250189
-0.0254511
-0.0259164
-0.0264169
-0.0269549
-0.0275324
-0.0281515
-0.0288143
-0.0295226
-0.0302782
-0.0310826
-0.031937
-0.0328422
-0.0337987
-0.0348064
-0.0358643
-0.0369707
-0.038123
-0.0393172
-0.040548
-0.0418085
-0.0430896
-0.0443802
-0.0456666
-0.046932
-0.0481563
-0.017394
-0.0174692
-0.0175444
-0.0176153
-0.0176864
-0.017759
-0.0178329
-0.0179077
-0.0179836
-0.0180605
-0.0181383
-0.0182172
-0.018297
-0.0183778
-0.0184594
-0.0185419
-0.0186253
-0.0187094
-0.0187944
-0.01888
-0.0189663
-0.0190533
-0.0191409
-0.019229
-0.0193176
-0.0194067
-0.0194962
-0.019586
-0.0196761
-0.0197665
-0.0198571
-0.0199478
-0.0200387
-0.0201296
-0.0202206
-0.0203116
-0.0204026
-0.0204935
-0.0205845
-0.0206755
-0.0207665
-0.0208576
-0.0209488
-0.0210402
-0.0211319
-0.0212241
-0.0213169
-0.0214105
-0.0215052
-0.0216011
-0.0216987
-0.0217982
-0.0219
-0.0220047
-0.0221127
-0.0222247
-0.0223411
-0.0224628
-0.0225905
-0.0227251
-0.0228674
-0.0230186
-0.0231797
-0.0233518
-0.0235363
-0.0237346
-0.023948
-0.0241782
-0.0244267
-0.0246954
-0.024986
-0.0253006
-0.025641
-0.0260093
-0.0264078
-0.0268387
-0.0273041
-0.0278065
-0.0283481
-0.0289312
-0.0295581
-0.0302309
-0.0309519
-0.0317228
-0.0325455
-0.0334212
-0.0343512
-0.0353359
-0.0363755
-0.0374691
-0.0386153
-0.0398115
-0.0410539
-0.0423373
-0.0436548
-0.0449974
-0.0463539
-0.0477105
-0.0490503
-0.0503528
-0.0189783
-0.0190546
-0.0191308
-0.0192027
-0.0192749
-0.0193485
-0.0194233
-0.0194993
-0.0195762
-0.0196542
-0.0197331
-0.0198131
-0.019894
-0.0199759
-0.0200586
-0.0201422
-0.0202266
-0.0203118
-0.0203977
-0.0204844
-0.0205716
-0.0206595
-0.0207479
-0.0208368
-0.020926
-0.0210157
-0.0211057
-0.0211958
-0.0212862
-0.0213767
-0.0214672
-0.0215577
-0.0216481
-0.0217384
-0.0218285
-0.0219184
-0.0220081
-0.0220974
-0.0221865
-0.0222752
-0.0223636
-0.0224518
-0.0225397
-0.0226275
-0.0227151
-0.0228028
-0.0228907
-0.022979
-0.0230678
-0.0231575
-0.0232484
-0.0233407
-0.023435
-0.0235316
-0.0236312
-0.0237342
-0.0238413
-0.0239534
-0.0240711
-0.0241953
-0.0243271
-0.0244675
-0.0246177
-0.0247789
-0.0249524
-0.0251397
-0.0253424
-0.0255621
-0.0258005
-0.0260596
-0.0263412
-0.0266473
-0.0269802
-0.0273421
-0.0277353
-0.028162
-0.0286249
-0.0291262
-0.0296686
-0.0302544
-0.0308862
-0.0315663
-0.032297
-0.0330804
-0.0339184
-0.0348127
-0.0357643
-0.0367742
-0.0378425
-0.0389687
-0.0401515
-0.0413883
-0.0426756
-0.0440082
-0.0453791
-0.0467796
-0.0481984
-0.0496215
-0.0510318
-0.0524087
-0.0205533
-0.0206311
-0.0207088
-0.020782
-0.0208555
-0.0209306
-0.0210069
-0.0210842
-0.0211626
-0.0212421
-0.0213225
-0.021404
-0.0214863
-0.0215697
-0.0216539
-0.0217389
-0.0218247
-0.0219113
-0.0219986
-0.0220865
-0.0221751
-0.0222641
-0.0223536
-0.0224435
-0.0225337
-0.0226241
-0.0227147
-0.0228055
-0.0228962
-0.0229868
-0.0230773
-0.0231676
-0.0232576
-0.0233472
-0.0234363
-0.023525
-0.023613
-0.0237005
-0.0237873
-0.0238733
-0.0239587
-0.0240434
-0.0241274
-0.0242108
-0.0242937
-0.024376
-0.0244581
-0.02454
-0.0246219
-0.0247042
-0.0247871
-0.0248709
-0.0249561
-0.0250431
-0.0251325
-0.0252249
-0.025321
-0.0254214
-0.0255271
-0.025639
-0.0257581
-0.0258856
-0.0260225
-0.0261704
-0.0263305
-0.0265045
-0.0266939
-0.0269006
-0.0271263
-0.027373
-0.0276428
-0.027938
-0.0282607
-0.0286133
-0.0289984
-0.0294183
-0.0298758
-0.0303733
-0.0309137
-0.0314995
-0.0321334
-0.0328179
-0.0335555
-0.0343485
-0.035199
-0.0361088
-0.0370792
-0.0381113
-0.0392053
-0.040361
-0.0415772
-0.0428514
-0.0441801
-0.0455584
-0.0469793
-0.0484341
-0.0499113
-0.051397
-0.0528738
-0.054321
-0.0221182
-0.0221978
-0.0222775
-0.0223525
-0.0224279
-0.0225047
-0.0225829
-0.0226621
-0.0227424
-0.0228238
-0.0229061
-0.0229895
-0.0230738
-0.023159
-0.023245
-0.0233319
-0.0234196
-0.0235079
-0.0235969
-0.0236865
-0.0237766
-0.0238671
-0.023958
-0.0240492
-0.0241406
-0.0242321
-0.0243235
-0.0244149
-0.0245062
-0.0245971
-0.0246876
-0.0247777
-0.0248672
-0.024956
-0.0250441
-0.0251312
-0.0252175
-0.0253027
-0.0253868
-0.0254698
-0.0255516
-0.0256323
-0.0257117
-0.02579
-0.0258672
-0.0259433
-0.0260185
-0.0260929
-0.0261668
-0.0262403
-0.0263139
-0.0263877
-0.0264623
-0.0265381
-0.0266156
-0.0266955
-0.0267785
-0.0268654
-0.0269571
-0.0270544
-0.0271586
-0.0272708
-0.0273922
-0.0275243
-0.0276686
-0.0278267
-0.0280003
-0.0281912
-0.0284016
-0.0286334
-0.0288888
-0.0291702
-0.02948
-0.0298207
-0.0301949
-0.0306053
-0.0310546
-0.0315456
-0.0320813
-0.0326643
-0.0332976
-0.0339838
-0.0347256
-0.0355254
-0.0363856
-0.0373081
-0.0382944
-0.0393458
-0.0404626
-0.0416448
-0.0428912
-0.0441996
-0.0455665
-0.0469871
-0.0484545
-0.0499597
-0.0514916
-0.0530359
-0.0545753
-0.0560885
-0.0236725
-0.0237546
-0.0238366
-0.023914
-0.0239916
-0.0240707
-0.0241512
-0.0242328
-0.0243155
-0.0243992
-0.024484
-0.0245697
-0.0246563
-0.0247439
-0.0248323
-0.0249214
-0.0250113
-0.0251019
-0.025193
-0.0252846
-0.0253767
-0.025469
-0.0255617
-0.0256544
-0.0257472
-0.02584
-0.0259325
-0.0260248
-0.0261167
-0.026208
-0.0262986
-0.0263885
-0.0264774
-0.0265654
-0.0266521
-0.0267377
-0.0268218
-0.0269044
-0.0269855
-0.0270649
-0.0271426
-0.0272185
-0.0272926
-0.027365
-0.0274355
-0.0275044
-0.0275717
-0.0276375
-0.027702
-0.0277655
-0.0278282
-0.0278905
-0.0279528
-0.0280155
-0.0280794
-0.0281449
-0.0282129
-0.0282841
-0.0283596
-0.0284402
-0.0285271
-0.0286217
-0.0287251
-0.028839
-0.0289649
-0.0291045
-0.0292596
-0.0294323
-0.0296246
-0.0298388
-0.0300772
-0.0303421
-0.0306363
-0.0309624
-0.031323
-0.0317212
-0.0321597
-0.0326416
-0.0331699
-0.0337476
-0.0343775
-0.0350628
-0.0358061
-0.0366102
-0.0374774
-0.0384099
-0.0394094
-0.0404773
-0.0416141
-0.0428198
-0.0440935
-0.045433
-0.0468349
-0.0482944
-0.0498047
-0.051357
-0.0529397
-0.0545387
-0.0561365
-0.0577115
-0.0252162
-0.0253013
-0.0253863
-0.0254665
-0.0255468
-0.0256289
-0.0257122
-0.0257967
-0.0258822
-0.0259688
-0.0260565
-0.0261451
-0.0262346
-0.026325
-0.0264162
-0.0265081
-0.0266007
-0.0266938
-0.0267875
-0.0268816
-0.026976
-0.0270706
-0.0271653
-0.02726
-0.0273545
-0.0274487
-0.0275426
-0.0276359
-0.0277285
-0.0278203
-0.0279111
-0.0280008
-0.0280891
-0.028176
-0.0282614
-0.0283449
-0.0284266
-0.0285063
-0.0285838
-0.0286591
-0.028732
-0.0288025
-0.0288705
-0.028936
-0.028999
-0.0290596
-0.0291177
-0.0291736
-0.0292274
-0.0292793
-0.0293296
-0.0293787
-0.029427
-0.0294749
-0.0295232
-0.0295723
-0.0296231
-0.0296765
-0.0297335
-0.029795
-0.0298623
-0.0299368
-0.0300198
-0.0301129
-0.0302178
-0.0303363
-0.0304705
-0.0306222
-0.0307939
-0.0309878
-0.0312064
-0.0314523
-0.0317282
-0.032037
-0.0323816
-0.0327649
-0.0331901
-0.0336603
-0.0341787
-0.0347484
-0.0353726
-0.0360544
-0.0367968
-0.0376026
-0.0384743
-0.0394143
-0.0404244
-0.0415061
-0.0426602
-0.0438868
-0.0451848
-0.0465524
-0.0479863
-0.0494816
-0.0510315
-0.0526271
-0.0542571
-0.0559069
-0.0575589
-0.0591915
-0.0267496
-0.0268383
-0.026927
-0.0270105
-0.0270942
-0.0271796
-0.0272664
-0.0273543
-0.0274433
-0.0275334
-0.0276244
-0.0277165
-0.0278094
-0.0279031
-0.0279977
-0.0280928
-0.0281886
-0.0282849
-0.0283816
-0.0284786
-0.0285757
-0.0286729
-0.0287701
-0.028867
-0.0289635
-0.0290596
-0.0291549
-0.0292495
-0.029343
-0.0294353
-0.0295263
-0.0296157
-0.0297034
-0.0297891
-0.0298728
-0.0299541
-0.030033
-0.0301093
-0.0301827
-0.0302532
-0.0303207
-0.030385
-0.030446
-0.0305037
-0.030558
-0.0306091
-0.0306568
-0.0307014
-0.030743
-0.0307818
-0.0308181
-0.0308522
-0.0308846
-0.0309158
-0.0309463
-0.030977
-0.0310085
-0.0310418
-0.0310779
-0.031118
-0.0311632
-0.0312151
-0.0312751
-0.0313449
-0.0314262
-0.0315211
-0.0316315
-0.0317598
-0.0319081
-0.0320791
-0.0322754
-0.0324996
-0.0327548
-0.0330437
-0.0333697
-0.0337357
-0.0341451
-0.0346012
-0.0351073
-0.0356667
-0.0362828
-0.0369588
-0.0376979
-0.038503
-0.0393769
-0.040322
-0.0413403
-0.0424335
-0.0436023
-0.0448471
-0.0461669
-0.0475598
-0.0490227
-0.0505506
-0.0521369
-0.0537726
-0.0554461
-0.057143
-0.0588453
-0.0605311
-0.0282735
-0.0283665
-0.0284594
-0.0285469
-0.0286346
-0.028724
-0.0288148
-0.0289068
-0.0289998
-0.0290939
-0.0291891
-0.0292851
-0.029382
-0.0294797
-0.0295781
-0.0296771
-0.0297766
-0.0298765
-0.0299767
-0.030077
-0.0301774
-0.0302776
-0.0303775
-0.030477
-0.0305759
-0.030674
-0.0307711
-0.030867
-0.0309616
-0.0310545
-0.0311457
-0.0312348
-0.0313216
-0.031406
-0.0314877
-0.0315665
-0.0316422
-0.0317145
-0.0317833
-0.0318484
-0.0319096
-0.0319668
-0.0320198
-0.0320686
-0.0321132
-0.0321534
-0.0321894
-0.0322213
-0.0322491
-0.0322731
-0.0322935
-0.0323108
-0.0323254
-0.0323377
-0.0323485
-0.0323584
-0.0323683
-0.0323792
-0.0323921
-0.0324082
-0.0324289
-0.0324557
-0.0324901
-0.032534
-0.0325892
-0.0326577
-0.0327419
-0.032844
-0.0329664
-0.033112
-0.0332833
-0.0334834
-0.0337153
-0.033982
-0.0342869
-0.0346333
-0.0350246
-0.0354642
-0.0359558
-0.0365027
-0.0371085
-0.0377766
-0.0385102
-0.0393125
-0.0401864
-0.0411344
-0.0421588
-0.0432611
-0.0444424
-0.0457029
-0.0470419
-0.0484576
-0.0499467
-0.0515044
-0.053124
-0.0547964
-0.0565101
-0.0582503
-0.0599991
-0.0617341
-0.0297888
-0.0298868
-0.0299847
-0.0300768
-0.0301692
-0.0302633
-0.0303588
-0.0304555
-0.0305532
-0.030652
-0.0307518
-0.0308525
-0.030954
-0.0310563
-0.0311591
-0.0312625
-0.0313663
-0.0314704
-0.0315746
-0.0316788
-0.0317828
-0.0318865
-0.0319896
-0.032092
-0.0321936
-0.0322939
-0.032393
-0.0324905
-0.0325861
-0.0326797
-0.032771
-0.0328598
-0.0329457
-0.0330285
-0.0331079
-0.0331837
-0.0332557
-0.0333235
-0.033387
-0.0334458
-0.0334999
-0.0335491
-0.0335931
-0.0336318
-0.0336653
-0.0336934
-0.0337162
-0.0337336
-0.033746
-0.0337534
-0.0337562
-0.0337547
-0.0337493
-0.0337407
-0.0337294
-0.0337163
-0.0337023
-0.0336883
-0.0336755
-0.0336652
-0.0336588
-0.0336578
-0.0336641
-0.0336794
-0.0337058
-0.0337455
-0.0338008
-0.0338741
-0.0339682
-0.0340858
-0.0342298
-0.0344033
-0.0346095
-0.0348517
-0.0351333
-0.0354578
-0.0358288
-0.0362499
-0.0367248
-0.0372572
-0.0378507
-0.0385089
-0.0392351
-0.0400326
-0.0409046
-0.0418535
-0.0428818
-0.0439912
-0.0451828
-0.0464568
-0.0478128
-0.0492487
-0.0507615
-0.0523463
-0.0539963
-0.0557025
-0.057453
-0.0592331
-0.0610245
-0.0628047
-0.031297
-0.0314008
-0.0315044
-0.0316019
-0.0316996
-0.0317991
-0.0319
-0.0320021
-0.0321053
-0.0322095
-0.0323146
-0.0324206
-0.0325274
-0.0326349
-0.0327428
-0.0328512
-0.0329599
-0.0330687
-0.0331775
-0.033286
-0.0333941
-0.0335017
-0.0336084
-0.0337142
-0.0338186
-0.0339216
-0.0340228
-0.034122
-0.0342188
-0.0343131
-0.0344045
-0.0344927
-0.0345774
-0.0346584
-0.0347352
-0.0348076
-0.0348752
-0.0349379
-0.0349953
-0.0350471
-0.0350931
-0.0351331
-0.0351669
-0.0351944
-0.0352154
-0.0352298
-0.0352377
-0.0352392
-0.0352343
-0.0352232
-0.0352063
-0.0351839
-0.0351565
-0.0351246
-0.035089
-0.0350505
-0.03501
-0.0349687
-0.0349277
-0.0348883
-0.0348522
-0.034821
-0.0347965
-0.0347806
-0.0347757
-0.0347839
-0.0348077
-0.0348499
-0.0349131
-0.0350002
-0.0351145
-0.0352592
-0.0354374
-0.0356529
-0.035909
-0.0362096
-0.0365583
-0.036959
-0.0374154
-0.0379314
-0.0385108
-0.0391572
-0.0398743
-0.0406653
-0.0415335
-0.0424816
-0.0435121
-0.0446266
-0.0458266
-0.0471122
-0.0484829
-0.049937
-0.0514711
-0.0530804
-0.0547581
-0.0564951
-0.0582794
-0.060096
-0.0619265
-0.0637481
-0.0327997
-0.0329102
-0.0330204
-0.033124
-0.0332277
-0.0333334
-0.0334405
-0.0335488
-0.0336581
-0.0337684
-0.0338797
-0.0339917
-0.0341045
-0.0342178
-0.0343316
-0.0344456
-0.0345598
-0.0346739
-0.0347878
-0.0349012
-0.035014
-0.0351259
-0.0352366
-0.035346
-0.0354537
-0.0355595
-0.035663
-0.035764
-0.0358621
-0.0359571
-0.0360485
-0.036136
-0.0362193
-0.036298
-0.0363717
-0.0364401
-0.0365029
-0.0365596
-0.0366101
-0.0366539
-0.0366908
-0.0367205
-0.0367428
-0.0367575
-0.0367645
-0.0367637
-0.0367551
-0.0367387
-0.0367146
-0.036683
-0.0366443
-0.0365988
-0.036547
-0.0364895
-0.0364272
-0.0363608
-0.0362914
-0.0362201
-0.0361483
-0.0360773
-0.0360088
-0.0359447
-0.0358868
-0.0358372
-0.0357983
-0.0357725
-0.0357625
-0.0357709
-0.0358008
-0.0358553
-0.0359376
-0.0360512
-0.0361995
-0.0363861
-0.0366149
-0.0368896
-0.0372143
-0.0375927
-0.0380289
-0.0385268
-0.0390905
-0.0397236
-0.0404299
-0.0412129
-0.0420758
-0.0430215
-0.0440524
-0.0451706
-0.0463772
-0.0476725
-0.0490561
-0.0505262
-0.0520795
-0.053711
-0.055414
-0.057179
-0.0589942
-0.0608442
-0.0627104
-0.0645697
-0.034299
-0.0344171
-0.0345347
-0.0346453
-0.0347559
-0.0348685
-0.0349826
-0.0350979
-0.0352142
-0.0353314
-0.0354496
-0.0355684
-0.0356879
-0.0358079
-0.0359281
-0.0360485
-0.0361688
-0.0362888
-0.0364084
-0.0365272
-0.0366451
-0.0367618
-0.036877
-0.0369903
-0.0371016
-0.0372104
-0.0373165
-0.0374194
-0.0375188
-0.0376143
-0.0377056
-0.0377921
-0.0378737
-0.0379497
-0.0380198
-0.0380836
-0.0381407
-0.0381908
-0.0382333
-0.0382681
-0.0382946
-0.0383128
-0.0383222
-0.0383227
-0.0383141
-0.0382962
-0.0382692
-0.0382329
-0.0381876
-0.0381334
-0.0380706
-0.0379997
-0.0379211
-0.0378357
-0.037744
-0.0376472
-0.0375463
-0.0374424
-0.0373371
-0.0372318
-0.0371284
-0.0370287
-0.0369347
-0.0368489
-0.0367735
-0.0367112
-0.0366648
-0.0366372
-0.0366316
-0.0366512
-0.0366994
-0.0367798
-0.0368961
-0.0370521
-0.0372517
-0.0374989
-0.0377978
-0.0381524
-0.0385669
-0.0390453
-0.0395918
-0.0402102
-0.0409044
-0.041678
-0.0425343
-0.0434762
-0.0445063
-0.0456265
-0.0468382
-0.0481418
-0.0495366
-0.0510208
-0.0525913
-0.0542429
-0.0559688
-0.0577594
-0.0596027
-0.0614832
-0.0633819
-0.0652753
-0.0357973
-0.0359238
-0.0360499
-0.0361683
-0.0362867
-0.0364072
-0.0365291
-0.0366522
-0.0367763
-0.0369014
-0.0370272
-0.0371537
-0.0372807
-0.037408
-0.0375354
-0.0376628
-0.03779
-0.0379166
-0.0380424
-0.0381673
-0.0382908
-0.0384127
-0.0385327
-0.0386504
-0.0387655
-0.0388776
-0.0389862
-0.0390911
-0.0391918
-0.0392878
-0.0393787
-0.039464
-0.0395433
-0.0396162
-0.0396821
-0.0397406
-0.0397912
-0.0398336
-0.0398672
-0.0398916
-0.0399066
-0.0399117
-0.0399067
-0.0398913
-0.0398653
-0.0398286
-0.0397811
-0.0397229
-0.0396541
-0.039575
-0.0394858
-0.039387
-0.0392792
-0.0391631
-0.0390396
-0.0389097
-0.0387745
-0.0386354
-0.0384939
-0.0383517
-0.0382106
-0.0380727
-0.0379402
-0.0378154
-0.0377011
-0.0375999
-0.0375148
-0.037449
-0.0374056
-0.0373882
-0.0374003
-0.0374457
-0.0375282
-0.0376518
-0.0378206
-0.0380388
-0.0383104
-0.0386398
-0.0390313
-0.039489
-0.0400171
-0.0406197
-0.0413006
-0.0420637
-0.0429121
-0.0438491
-0.0448772
-0.0459983
-0.0472138
-0.048524
-0.0499285
-0.0514253
-0.0530112
-0.054681
-0.0564277
-0.0582416
-0.0601105
-0.0620187
-0.0639468
-0.0658712
-0.037297
-0.0374332
-0.0375687
-0.0376959
-0.0378231
-0.0379523
-0.038083
-0.0382149
-0.0383477
-0.0384814
-0.0386158
-0.0387507
-0.0388861
-0.0390215
-0.039157
-0.0392922
-0.0394268
-0.0395607
-0.0396934
-0.0398248
-0.0399545
-0.0400821
-0.0402073
-0.0403296
-0.0404488
-0.0405643
-0.0406757
-0.0407825
-0.0408843
-0.0409806
-0.0410709
-0.0411546
-0.0412313
-0.0413004
-0.0413613
-0.0414137
-0.0414569
-0.0414904
-0.0415139
-0.0415268
-0.0415286
-0.0415192
-0.041498
-0.0414649
-0.0414196
-0.0413619
-0.0412919
-0.0412096
-0.041115
-0.0410085
-0.0408904
-0.0407612
-0.0406215
-0.0404722
-0.0403141
-0.0401483
-0.0399762
-0.0397991
-0.0396188
-0.0394369
-0.0392554
-0.0390767
-0.038903
-0.0387369
-0.0385812
-0.0384387
-0.0383127
-0.0382064
-0.0381232
-0.0380669
-0.0380411
-0.0380497
-0.0380968
-0.0381865
-0.0383231
-0.0385108
-0.038754
-0.039057
-0.0394243
-0.0398602
-0.040369
-0.0409547
-0.0416215
-0.042373
-0.0432128
-0.0441439
-0.0451689
-0.0462898
-0.0475079
-0.0488237
-0.0502365
-0.0517445
-0.0533442
-0.0550304
-0.0567959
-0.058631
-0.0605231
-0.0624565
-0.0644113
-0.0663635
-0.0388014
-0.0389482
-0.0390943
-0.0392313
-0.0393682
-0.0395072
-0.0396477
-0.0397893
-0.0399318
-0.040075
-0.0402189
-0.0403632
-0.0405078
-0.0406523
-0.0407965
-0.0409402
-0.0410831
-0.0412249
-0.0413652
-0.0415037
-0.04164
-0.0417737
-0.0419045
-0.0420318
-0.0421552
-0.0422743
-0.0423884
-0.0424972
-0.0426
-0.0426964
-0.0427856
-0.0428673
-0.0429407
-0.0430053
-0.0430605
-0.0431057
-0.0431403
-0.0431639
-0.0431759
-0.0431757
-0.0431629
-0.0431371
-0.043098
-0.0430451
-0.0429784
-0.0428977
-0.0428028
-0.0426939
-0.0425711
-0.0424347
-0.042285
-0.0421227
-0.0419484
-0.041763
-0.0415676
-0.0413632
-0.0411513
-0.0409335
-0.0407114
-0.0404872
-0.0402628
-0.0400406
-0.0398232
-0.0396133
-0.0394138
-0.0392279
-0.0390588
-0.0389099
-0.0387851
-0.038688
-0.0386225
-0.0385928
-0.038603
-0.0386575
-0.0387605
-0.0389167
-0.0391303
-0.039406
-0.0397483
-0.0401615
-0.0406501
-0.0412183
-0.0418702
-0.0426095
-0.0434398
-0.0443641
-0.0453853
-0.0465051
-0.047725
-0.0490453
-0.0504653
-0.0519831
-0.0535952
-0.0552962
-0.0570789
-0.0589332
-0.0608465
-0.0628025
-0.0647814
-0.0667586
-0.0403135
-0.0404722
-0.0406301
-0.040778
-0.0409256
-0.0410754
-0.0412268
-0.0413791
-0.0415323
-0.0416862
-0.0418405
-0.0419951
-0.0421498
-0.0423042
-0.042458
-0.0426111
-0.0427629
-0.0429133
-0.0430618
-0.0432079
-0.0433514
-0.0434917
-0.0436284
-0.043761
-0.0438888
-0.0440115
-0.0441284
-0.044239
-0.0443426
-0.0444386
-0.0445265
-0.0446054
-0.0446748
-0.0447341
-0.0447826
-0.0448196
-0.0448445
-0.0448567
-0.0448556