/*--------------------------------*- C++ -*----------------------------------*\
| =========                 |                                                 |
| \\      /  F ield         | OpenFOAM: The Open Source CFD Toolbox           |
|  \\    /   O peration     | Version:  2406                                  |
|   \\  /    A nd           | Website:  www.openfoam.com                      |
|    \\/     M anipulation  |                                                 |
\*---------------------------------------------------------------------------*/
FoamFile
{
    version     2.0;
    format      ascii;
    arch        "LSB;label=32;scalar=64";
    class       surfaceScalarField;
    location    "6";
    object      phi;
}
// * * * * * * * * * * * * * * * * * * * * * * * * * * * * * * * * * * * * * //

dimensions      [0 3 -1 0 0 0 0];

oriented        oriented;

internalField   nonuniform List<scalar> 
79600
(
-2.90257e-09
7.32083e-08
-7.03054e-08
-1.18289e-08
2.25273e-07
-2.16346e-07
-2.71426e-08
3.86702e-07
-3.71388e-07
-4.92229e-08
5.579e-07
-5.35819e-07
-7.84643e-08
7.3928e-07
-7.10039e-07
-1.15277e-07
9.31269e-07
-8.94456e-07
-1.60087e-07
1.13431e-06
-1.08949e-06
-2.13338e-07
1.34884e-06
-1.29559e-06
-2.75489e-07
1.57533e-06
-1.51318e-06
-3.47017e-07
1.81425e-06
-1.74272e-06
-4.28416e-07
2.06609e-06
-1.98469e-06
-5.20197e-07
2.33133e-06
-2.23955e-06
-6.22891e-07
2.61049e-06
-2.50779e-06
-7.37046e-07
2.90407e-06
-2.78992e-06
-8.63228e-07
3.21261e-06
-3.08643e-06
-1.00202e-06
3.53663e-06
-3.39784e-06
-1.15403e-06
3.87668e-06
-3.72467e-06
-1.31988e-06
4.23331e-06
-4.06746e-06
-1.5002e-06
4.60706e-06
-4.42674e-06
-1.69567e-06
4.99851e-06
-4.80305e-06
-1.90696e-06
5.40822e-06
-5.19694e-06
-2.13476e-06
5.83676e-06
-5.60896e-06
-2.37979e-06
6.2847e-06
-6.03967e-06
-2.64279e-06
6.75262e-06
-6.48962e-06
-2.9245e-06
7.24109e-06
-6.95937e-06
-3.22571e-06
7.75068e-06
-7.44947e-06
-3.54719e-06
8.28196e-06
-7.96048e-06
-3.88974e-06
8.83549e-06
-8.49293e-06
-4.2542e-06
9.41183e-06
-9.04738e-06
-4.64139e-06
1.00115e-05
-9.62435e-06
-5.05215e-06
1.06351e-05
-1.02244e-05
-5.48736e-06
1.12831e-05
-1.08479e-05
-5.94789e-06
1.19561e-05
-1.14955e-05
-6.43462e-06
1.26544e-05
-1.21676e-05
-6.94845e-06
1.33786e-05
-1.28647e-05
-7.49028e-06
1.41291e-05
-1.35872e-05
-8.06103e-06
1.49063e-05
-1.43356e-05
-8.6616e-06
1.57106e-05
-1.51101e-05
-9.29294e-06
1.65424e-05
-1.59111e-05
-9.95595e-06
1.74019e-05
-1.67389e-05
-1.06516e-05
1.82895e-05
-1.75939e-05
-1.13807e-05
1.92053e-05
-1.84762e-05
-1.21443e-05
2.01496e-05
-1.9386e-05
-1.29432e-05
2.11224e-05
-2.03235e-05
-1.37784e-05
2.21238e-05
-2.12886e-05
-1.46507e-05
2.31539e-05
-2.22815e-05
-1.55611e-05
2.42125e-05
-2.33021e-05
-1.65104e-05
2.52996e-05
-2.43503e-05
-1.74995e-05
2.64149e-05
-2.54259e-05
-1.85291e-05
2.75582e-05
-2.65286e-05
-1.96001e-05
2.87291e-05
-2.76581e-05
-2.07133e-05
2.99272e-05
-2.8814e-05
-2.18695e-05
3.11519e-05
-2.99957e-05
-2.30694e-05
3.24026e-05
-3.12027e-05
-2.43136e-05
3.36785e-05
-3.24342e-05
-2.56029e-05
3.49788e-05
-3.36895e-05
-2.69379e-05
3.63025e-05
-3.49675e-05
-2.83192e-05
3.76486e-05
-3.62673e-05
-2.97474e-05
3.90158e-05
-3.75876e-05
-3.1223e-05
4.04027e-05
-3.89271e-05
-3.27465e-05
4.18079e-05
-4.02844e-05
-3.43185e-05
4.32296e-05
-4.16577e-05
-3.59392e-05
4.46661e-05
-4.30454e-05
-3.76092e-05
4.61153e-05
-4.44454e-05
-3.93287e-05
4.7575e-05
-4.58554e-05
-4.10982e-05
4.90427e-05
-4.72732e-05
-4.29179e-05
5.05158e-05
-4.86961e-05
-4.47882e-05
5.19912e-05
-5.0121e-05
-4.67092e-05
5.34659e-05
-5.15449e-05
-4.86812e-05
5.49361e-05
-5.2964e-05
-5.07044e-05
5.63979e-05
-5.43747e-05
-5.27791e-05
5.7847e-05
-5.57724e-05
-5.49054e-05
5.92787e-05
-5.71524e-05
-5.70834e-05
6.06876e-05
-5.85095e-05
-5.93135e-05
6.20678e-05
-5.98378e-05
-6.15957e-05
6.34129e-05
-6.11307e-05
-6.39302e-05
6.47155e-05
-6.2381e-05
-6.63172e-05
6.59677e-05
-6.35807e-05
-6.87568e-05
6.71604e-05
-6.47208e-05
-7.12492e-05
6.82836e-05
-6.57912e-05
-7.37945e-05
6.9326e-05
-6.67807e-05
-7.63928e-05
7.02753e-05
-6.7677e-05
-7.90442e-05
7.11174e-05
-6.8466e-05
-8.17486e-05
7.18367e-05
-6.91322e-05
-8.4506e-05
7.24157e-05
-6.96583e-05
-8.73161e-05
7.28349e-05
-7.00248e-05
-9.01786e-05
7.30726e-05
-7.02102e-05
-9.30928e-05
7.31045e-05
-7.01903e-05
-9.60578e-05
7.29034e-05
-6.99385e-05
-9.90722e-05
7.24394e-05
-6.94249e-05
-0.000102134
7.16789e-05
-6.86168e-05
-0.000105242
7.0585e-05
-6.74776e-05
-0.000108391
6.91165e-05
-6.59671e-05
-0.000111578
6.72284e-05
-6.40412e-05
-0.000114798
6.48709e-05
-6.16513e-05
-0.000118043
6.19895e-05
-5.87446e-05
-0.000121304
5.8525e-05
-5.52635e-05
-0.000124571
5.44128e-05
-5.1146e-05
-0.000127829
4.95834e-05
-4.63253e-05
4.39625e-05
-0.000131061
-4.07305e-05
-2.81069e-09
7.60191e-08
-1.14549e-08
2.33917e-07
-2.62864e-08
4.01534e-07
-4.76736e-08
5.79287e-07
-7.6e-08
7.67606e-07
-1.11664e-07
9.66934e-07
-1.55081e-07
1.17772e-06
-2.06682e-07
1.40044e-06
-2.66911e-07
1.63556e-06
-3.36235e-07
1.88357e-06
-4.15132e-07
2.14498e-06
-5.04102e-07
2.4203e-06
-6.03658e-07
2.71004e-06
-7.14334e-07
3.01475e-06
-8.3668e-07
3.33496e-06
-9.71267e-07
3.67122e-06
-1.11868e-06
4.02409e-06
-1.27952e-06
4.39415e-06
-1.45442e-06
4.78196e-06
-1.64402e-06
5.18811e-06
-1.84897e-06
5.61317e-06
-2.06995e-06
6.05774e-06
-2.30766e-06
6.52241e-06
-2.56282e-06
7.00777e-06
-2.83615e-06
7.51441e-06
-3.12839e-06
8.04292e-06
-3.44032e-06
8.59388e-06
-3.7727e-06
9.16787e-06
-4.12634e-06
9.76547e-06
-4.50204e-06
1.03872e-05
-4.90062e-06
1.10337e-05
-5.32291e-06
1.17054e-05
-5.76976e-06
1.24029e-05
-6.24203e-06
1.31266e-05
-6.74057e-06
1.38771e-05
-7.26625e-06
1.46548e-05
-7.81995e-06
1.546e-05
-8.40256e-06
1.62932e-05
-9.01495e-06
1.71548e-05
-9.658e-06
1.8045e-05
-1.03326e-05
1.89641e-05
-1.10396e-05
1.99124e-05
-1.178e-05
2.08899e-05
-1.25544e-05
2.18969e-05
-1.3364e-05
2.29333e-05
-1.42093e-05
2.39993e-05
-1.50914e-05
2.50946e-05
-1.60109e-05
2.62192e-05
-1.69687e-05
2.73728e-05
-1.79656e-05
2.85551e-05
-1.90023e-05
2.97658e-05
-2.00796e-05
3.10044e-05
-2.1198e-05
3.22703e-05
-2.23583e-05
3.35629e-05
-2.35611e-05
3.48813e-05
-2.48071e-05
3.62247e-05
-2.60966e-05
3.75921e-05
-2.74304e-05
3.89824e-05
-2.88089e-05
4.03942e-05
-3.02325e-05
4.18263e-05
-3.17016e-05
4.3277e-05
-3.32167e-05
4.47447e-05
-3.47781e-05
4.62275e-05
-3.63861e-05
4.77233e-05
-3.80409e-05
4.92298e-05
-3.97429e-05
5.07447e-05
-4.14922e-05
5.22651e-05
-4.3289e-05
5.37881e-05
-4.51336e-05
5.53104e-05
-4.7026e-05
5.68285e-05
-4.89666e-05
5.83384e-05
-5.09552e-05
5.98357e-05
-5.29923e-05
6.13157e-05
-5.50778e-05
6.27731e-05
-5.72119e-05
6.4202e-05
-5.93948e-05
6.55958e-05
-6.16267e-05
6.69474e-05
-6.39077e-05
6.82487e-05
-6.62382e-05
6.94908e-05
-6.86182e-05
7.06636e-05
-7.10481e-05
7.1756e-05
-7.35282e-05
7.27554e-05
-7.60586e-05
7.36478e-05
-7.86397e-05
7.44178e-05
-8.12716e-05
7.50476e-05
-8.39546e-05
7.55179e-05
-8.66886e-05
7.58066e-05
-8.94736e-05
7.58895e-05
-9.23093e-05
7.57392e-05
-9.51952e-05
7.53253e-05
-9.81303e-05
7.46141e-05
-0.000101113
7.35679e-05
-0.000104142
7.21452e-05
-0.000107214
7.03e-05
-0.000110324
6.79816e-05
-0.000113469
6.51341e-05
-0.000116641
6.16966e-05
-0.00011983
5.76027e-05
-0.000123027
5.27802e-05
4.71517e-05
-0.000126216
-2.71955e-09
7.87386e-08
-1.10843e-08
2.42282e-07
-2.54381e-08
4.15887e-07
-4.61388e-08
5.99988e-07
-7.3559e-08
7.95026e-07
-1.08086e-07
1.00146e-06
-1.50123e-07
1.21976e-06
-2.00087e-07
1.4504e-06
-2.58414e-07
1.69389e-06
-3.25554e-07
1.95071e-06
-4.01973e-07
2.2214e-06
-4.88156e-07
2.50648e-06
-5.84602e-07
2.80649e-06
-6.91831e-07
3.12198e-06
-8.10377e-07
3.4535e-06
-9.40792e-07
3.80163e-06
-1.08365e-06
4.16695e-06
-1.23953e-06
4.55003e-06
-1.40904e-06
4.95148e-06
-1.59281e-06
5.37188e-06
-1.79148e-06
5.81184e-06
-2.0057e-06
6.27196e-06
-2.23614e-06
6.75286e-06
-2.48351e-06
7.25514e-06
-2.74849e-06
7.7794e-06
-3.03183e-06
8.32626e-06
-3.33425e-06
8.8963e-06
-3.65652e-06
9.49014e-06
-3.99938e-06
1.01083e-05
-4.36363e-06
1.07515e-05
-4.75006e-06
1.14201e-05
-5.15947e-06
1.21148e-05
-5.59267e-06
1.28361e-05
-6.05048e-06
1.35845e-05
-6.53374e-06
1.43604e-05
-7.04326e-06
1.51643e-05
-7.5799e-06
1.59966e-05
-8.14449e-06
1.68578e-05
-8.73787e-06
1.77482e-05
-9.36089e-06
1.8668e-05
-1.00144e-05
1.96176e-05
-1.06992e-05
2.05971e-05
-1.14161e-05
2.16068e-05
-1.21659e-05
2.26467e-05
-1.29495e-05
2.37169e-05
-1.37675e-05
2.48173e-05
-1.46209e-05
2.59479e-05
-1.55103e-05
2.71086e-05
-1.64365e-05
2.82989e-05
-1.74001e-05
2.95187e-05
-1.84019e-05
3.07676e-05
-1.94424e-05
3.2045e-05
-2.05223e-05
3.33503e-05
-2.16423e-05
3.46828e-05
-2.28027e-05
3.60418e-05
-2.40042e-05
3.74262e-05
-2.52472e-05
3.88351e-05
-2.65322e-05
4.02673e-05
-2.78595e-05
4.17216e-05
-2.92296e-05
4.31964e-05
-3.06426e-05
4.46901e-05
-3.2099e-05
4.62011e-05
-3.3599e-05
4.77275e-05
-3.51427e-05
4.9267e-05
-3.67305e-05
5.08176e-05
-3.83623e-05
5.23765e-05
-4.00384e-05
5.39412e-05
-4.17589e-05
5.55086e-05
-4.35238e-05
5.70753e-05
-4.53332e-05
5.86379e-05
-4.71872e-05
6.01924e-05
-4.90859e-05
6.17344e-05
-5.10293e-05
6.32592e-05
-5.30176e-05
6.47614e-05
-5.50509e-05
6.62352e-05
-5.71292e-05
6.76742e-05
-5.92528e-05
6.9071e-05
-6.14219e-05
7.04178e-05
-6.36367e-05
7.17056e-05
-6.58976e-05
7.29244e-05
-6.82048e-05
7.40632e-05
-7.05587e-05
7.51093e-05
-7.29599e-05
7.6049e-05
-7.54087e-05
7.68666e-05
-7.79057e-05
7.75446e-05
-8.04513e-05
7.80635e-05
-8.30461e-05
7.84014e-05
-8.56904e-05
7.85338e-05
-8.83846e-05
7.84333e-05
-9.11288e-05
7.80695e-05
-9.39228e-05
7.74081e-05
-9.67663e-05
7.64114e-05
-9.96584e-05
7.50373e-05
-0.000102597
7.3239e-05
-0.000105581
7.09652e-05
-0.000108606
6.81589e-05
-0.000111667
6.47577e-05
-0.000114758
6.06935e-05
-0.00011787
5.58921e-05
5.02731e-05
-0.000120991
-2.63056e-09
8.13691e-08
-1.07229e-08
2.50374e-07
-2.4611e-08
4.29775e-07
-4.46423e-08
6.20019e-07
-7.11788e-08
8.21563e-07
-1.04597e-07
1.03488e-06
-1.45288e-07
1.26045e-06
-1.93658e-07
1.49877e-06
-2.50129e-07
1.75036e-06
-3.15139e-07
2.01572e-06
-3.89142e-07
2.29541e-06
-4.72607e-07
2.58995e-06
-5.6602e-07
2.8999e-06
-6.69886e-07
3.22584e-06
-7.84723e-07
3.56834e-06
-9.11067e-07
3.92798e-06
-1.04947e-06
4.30535e-06
-1.20051e-06
4.70107e-06
-1.36477e-06
5.11573e-06
-1.54285e-06
5.54996e-06
-1.73537e-06
6.00436e-06
-1.94297e-06
6.47956e-06
-2.16631e-06
6.9762e-06
-2.40604e-06
7.49487e-06
-2.66287e-06
8.03622e-06
-2.93748e-06
8.60087e-06
-3.23058e-06
9.18941e-06
-3.54292e-06
9.80247e-06
-3.87521e-06
1.04406e-05
-4.22822e-06
1.11045e-05
-4.6027e-06
1.17946e-05
-4.99944e-06
1.25116e-05
-5.41919e-06
1.32559e-05
-5.86276e-06
1.4028e-05
-6.33093e-06
1.48285e-05
-6.8245e-06
1.56579e-05
-7.34427e-06
1.65164e-05
-7.89104e-06
1.74046e-05
-8.46559e-06
1.83227e-05
-9.06873e-06
1.92712e-05
-9.70124e-06
2.02501e-05
-1.03639e-05
2.12598e-05
-1.10575e-05
2.23004e-05
-1.17827e-05
2.3372e-05
-1.25404e-05
2.44746e-05
-1.33312e-05
2.56082e-05
-1.41559e-05
2.67726e-05
-1.50151e-05
2.79677e-05
-1.59094e-05
2.91933e-05
-1.68396e-05
3.04489e-05
-1.78062e-05
3.17342e-05
-1.88098e-05
3.30485e-05
-1.98508e-05
3.43913e-05
-2.09299e-05
3.57619e-05
-2.20475e-05
3.71593e-05
-2.32039e-05
3.85826e-05
-2.43996e-05
4.00308e-05
-2.56349e-05
4.15027e-05
-2.69101e-05
4.29968e-05
-2.82255e-05
4.45117e-05
-2.95813e-05
4.60459e-05
-3.09776e-05
4.75975e-05
-3.24147e-05
4.91645e-05
-3.38925e-05
5.07449e-05
-3.54113e-05
5.23363e-05
-3.6971e-05
5.39362e-05
-3.85717e-05
5.55419e-05
-4.02134e-05
5.71502e-05
-4.1896e-05
5.87579e-05
-4.36195e-05
6.03615e-05
-4.5384e-05
6.19569e-05
-4.71894e-05
6.35398e-05
-4.90357e-05
6.51055e-05
-5.0923e-05
6.66487e-05
-5.28513e-05
6.81635e-05
-5.48206e-05
6.96435e-05
-5.68312e-05
7.10816e-05
-5.88833e-05
7.24699e-05
-6.0977e-05
7.37994e-05
-6.31129e-05
7.50603e-05
-6.52912e-05
7.62414e-05
-6.75124e-05
7.73306e-05
-6.97772e-05
7.83138e-05
-7.20862e-05
7.91756e-05
-7.44402e-05
7.98986e-05
-7.68399e-05
8.04632e-05
-7.92862e-05
8.08477e-05
-8.17799e-05
8.10275e-05
-8.43219e-05
8.09754e-05
-8.6913e-05
8.06605e-05
-8.95538e-05
8.00489e-05
-9.22448e-05
7.91024e-05
-9.49861e-05
7.77786e-05
-9.77773e-05
7.60303e-05
-0.000100618
7.38055e-05
-0.000103505
7.10464e-05
-0.000106437
6.76895e-05
-0.000109409
6.36653e-05
-0.000112414
5.88976e-05
5.33038e-05
-0.000115445
-2.54519e-09
8.39143e-08
-1.03762e-08
2.58205e-07
-2.38174e-08
4.43217e-07
-4.32064e-08
6.39408e-07
-6.88951e-08
8.47252e-07
-1.01249e-07
1.06723e-06
-1.40649e-07
1.29985e-06
-1.87489e-07
1.54561e-06
-2.4218e-07
1.80505e-06
-3.05146e-07
2.07869e-06
-3.76829e-07
2.36709e-06
-4.57685e-07
2.6708e-06
-5.48187e-07
2.99041e-06
-6.48823e-07
3.32648e-06
-7.60097e-07
3.67961e-06
-8.8253e-07
4.05041e-06
-1.01666e-06
4.43948e-06
-1.16304e-06
4.84745e-06
-1.32224e-06
5.27493e-06
-1.49484e-06
5.72256e-06
-1.68145e-06
6.19097e-06
-1.88268e-06
6.6808e-06
-2.09916e-06
7.19268e-06
-2.33155e-06
7.72726e-06
-2.58049e-06
8.28517e-06
-2.84668e-06
8.86705e-06
-3.13078e-06
9.47352e-06
-3.43351e-06
1.01052e-05
-3.75557e-06
1.07627e-05
-4.09769e-06
1.14466e-05
-4.46059e-06
1.21575e-05
-4.84502e-06
1.2896e-05
-5.25171e-06
1.36626e-05
-5.68142e-06
1.44577e-05
-6.13491e-06
1.5282e-05
-6.61292e-06
1.61359e-05
-7.11622e-06
1.70197e-05
-7.64556e-06
1.79339e-05
-8.20168e-06
1.88789e-05
-8.78533e-06
1.98548e-05
-9.39726e-06
2.0862e-05
-1.00382e-05
2.19007e-05
-1.07088e-05
2.2971e-05
-1.14098e-05
2.4073e-05
-1.21419e-05
2.52067e-05
-1.29058e-05
2.6372e-05
-1.3702e-05
2.75688e-05
-1.45312e-05
2.87969e-05
-1.53939e-05
3.00561e-05
-1.62908e-05
3.13458e-05
-1.72223e-05
3.26657e-05
-1.81889e-05
3.40151e-05
-1.91911e-05
3.53935e-05
-2.02292e-05
3.68e-05
-2.13036e-05
3.82338e-05
-2.24148e-05
3.96938e-05
-2.35628e-05
4.11789e-05
-2.4748e-05
4.26879e-05
-2.59706e-05
4.42194e-05
-2.72306e-05
4.57718e-05
-2.85284e-05
4.73436e-05
-2.98637e-05
4.89329e-05
-3.12369e-05
5.05376e-05
-3.26477e-05
5.21557e-05
-3.40962e-05
5.37848e-05
-3.55823e-05
5.54223e-05
-3.71059e-05
5.70655e-05
-3.86669e-05
5.87112e-05
-4.02652e-05
6.03563e-05
-4.19007e-05
6.1997e-05
-4.35733e-05
6.36295e-05
-4.52828e-05
6.52493e-05
-4.70291e-05
6.68519e-05
-4.88123e-05
6.84318e-05
-5.06323e-05
6.99834e-05
-5.24891e-05
7.15003e-05
-5.43828e-05
7.29754e-05
-5.63137e-05
7.44008e-05
-5.82821e-05
7.57677e-05
-6.02881e-05
7.70663e-05
-6.23324e-05
7.82857e-05
-6.44155e-05
7.94137e-05
-6.65381e-05
8.04364e-05
-6.87011e-05
8.13385e-05
-7.09053e-05
8.21028e-05
-7.31518e-05
8.27098e-05
-7.54419e-05
8.31377e-05
-7.77767e-05
8.33623e-05
-8.01576e-05
8.33563e-05
-8.2586e-05
8.30889e-05
-8.50632e-05
8.25261e-05
-8.75905e-05
8.16297e-05
-9.0169e-05
8.03571e-05
-9.27995e-05
7.86608e-05
-9.54823e-05
7.64883e-05
-9.82174e-05
7.37814e-05
-0.000101003
7.04756e-05
-0.000103838
6.65002e-05
-0.000106718
6.17775e-05
5.62228e-05
-0.000109637
-2.46464e-09
8.63789e-08
-1.00491e-08
2.65789e-07
-2.30686e-08
4.56236e-07
-4.18519e-08
6.58191e-07
-6.67408e-08
8.7214e-07
-9.8091e-08
1.09858e-06
-1.36272e-07
1.33803e-06
-1.81669e-07
1.59101e-06
-2.34679e-07
1.85806e-06
-2.95717e-07
2.13973e-06
-3.65211e-07
2.43658e-06
-4.43604e-07
2.7492e-06
-5.31355e-07
3.07816e-06
-6.2894e-07
3.42406e-06
-7.36847e-07
3.78752e-06
-8.55584e-07
4.16915e-06
-9.8567e-07
4.56957e-06
-1.12764e-06
4.98942e-06
-1.28205e-06
5.42934e-06
-1.44947e-06
5.88997e-06
-1.63047e-06
6.37197e-06
-1.82566e-06
6.87598e-06
-2.03564e-06
7.40266e-06
-2.26104e-06
7.95266e-06
-2.5025e-06
8.52663e-06
-2.76066e-06
9.12521e-06
-3.0362e-06
9.74905e-06
-3.32977e-06
1.03988e-05
-3.64207e-06
1.1075e-05
-3.97378e-06
1.17783e-05
-4.3256e-06
1.25093e-05
-4.69825e-06
1.32686e-05
-5.09241e-06
1.40567e-05
-5.50882e-06
1.48741e-05
-5.94819e-06
1.57214e-05
-6.41122e-06
1.65989e-05
-6.89863e-06
1.75071e-05
-7.41113e-06
1.84464e-05
-7.94941e-06
1.94171e-05
-8.51418e-06
2.04196e-05
-9.10612e-06
2.1454e-05
-9.72588e-06
2.25205e-05
-1.03741e-05
2.36193e-05
-1.10515e-05
2.47504e-05
-1.17586e-05
2.59138e-05
-1.2496e-05
2.71094e-05
-1.32643e-05
2.83371e-05
-1.4064e-05
2.95966e-05
-1.48956e-05
3.08877e-05
-1.57596e-05
3.22098e-05
-1.66564e-05
3.35625e-05
-1.75863e-05
3.49451e-05
-1.85499e-05
3.63571e-05
-1.95473e-05
3.77974e-05
-2.05788e-05
3.92653e-05
-2.16447e-05
4.07596e-05
-2.27451e-05
4.22793e-05
-2.38801e-05
4.38229e-05
-2.50498e-05
4.53891e-05
-2.62544e-05
4.69763e-05
-2.74936e-05
4.85829e-05
-2.87676e-05
5.02068e-05
-3.00761e-05
5.18462e-05
-3.14192e-05
5.34988e-05
-3.27965e-05
5.51622e-05
-3.4208e-05
5.68338e-05
-3.56534e-05
5.85109e-05
-3.71326e-05
6.01903e-05
-3.86451e-05
6.18689e-05
-4.0191e-05
6.35428e-05
-4.17698e-05
6.52083e-05
-4.33814e-05
6.68609e-05
-4.50256e-05
6.84961e-05
-4.67024e-05
7.01085e-05
-4.84115e-05
7.16926e-05
-5.0153e-05
7.32418e-05
-5.19269e-05
7.47493e-05
-5.37334e-05
7.62073e-05
-5.55728e-05
7.7607e-05
-5.74454e-05
7.89389e-05
-5.93517e-05
8.0192e-05
-6.12923e-05
8.13543e-05
-6.3268e-05
8.24122e-05
-6.52799e-05
8.33504e-05
-6.7329e-05
8.41519e-05
-6.94166e-05
8.47974e-05
-7.15442e-05
8.52653e-05
-7.37134e-05
8.55315e-05
-7.59259e-05
8.55688e-05
-7.81838e-05
8.53468e-05
-8.04889e-05
8.48312e-05
-8.28432e-05
8.39841e-05
-8.52489e-05
8.27627e-05
-8.77077e-05
8.11196e-05
-9.02212e-05
7.90019e-05
-9.27907e-05
7.63509e-05
-9.54168e-05
7.31017e-05
-9.80993e-05
6.91826e-05
-0.000100836
6.45147e-05
5.90116e-05
-0.000103625
-2.39001e-09
8.8769e-08
-9.74607e-09
2.73145e-07
-2.23752e-08
4.68865e-07
-4.05975e-08
6.76414e-07
-6.47457e-08
8.96289e-07
-9.51663e-08
1.129e-06
-1.32219e-07
1.37508e-06
-1.76279e-07
1.63507e-06
-2.27732e-07
1.90951e-06
-2.86983e-07
2.19898e-06
-3.54447e-07
2.50405e-06
-4.30556e-07
2.82531e-06
-5.15757e-07
3.16336e-06
-6.1051e-07
3.51882e-06
-7.15293e-07
3.8923e-06
-8.30595e-07
4.28445e-06
-9.56924e-07
4.6959e-06
-1.0948e-06
5.1273e-06
-1.24475e-06
5.5793e-06
-1.40734e-06
6.05256e-06
-1.58312e-06
6.54775e-06
-1.77267e-06
7.06553e-06
-1.97658e-06
7.60657e-06
-2.19546e-06
8.17154e-06
-2.42991e-06
8.76108e-06
-2.68057e-06
9.37587e-06
-2.94806e-06
1.00165e-05
-3.23304e-06
1.06837e-05
-3.53616e-06
1.13781e-05
-3.85807e-06
1.21002e-05
-4.19945e-06
1.28507e-05
-4.56097e-06
1.36301e-05
-4.94329e-06
1.4439e-05
-5.34709e-06
1.52779e-05
-5.77304e-06
1.61473e-05
-6.22183e-06
1.70477e-05
-6.6941e-06
1.79794e-05
-7.19053e-06
1.89429e-05
-7.71176e-06
1.99384e-05
-8.25842e-06
2.09663e-05
-8.83116e-06
2.20267e-05
-9.43056e-06
2.31199e-05
-1.00572e-05
2.42459e-05
-1.07117e-05
2.54049e-05
-1.13946e-05
2.65966e-05
-1.21063e-05
2.78211e-05
-1.28474e-05
2.90782e-05
-1.36184e-05
3.03676e-05
-1.44195e-05
3.16888e-05
-1.52513e-05
3.30416e-05
-1.6114e-05
3.44252e-05
-1.7008e-05
3.58391e-05
-1.79335e-05
3.72825e-05
-1.88907e-05
3.87546e-05
-1.98797e-05
4.02543e-05
-2.09007e-05
4.17806e-05
-2.19538e-05
4.33323e-05
-2.30389e-05
4.4908e-05
-2.4156e-05
4.65062e-05
-2.5305e-05
4.81253e-05
-2.64857e-05
4.97636e-05
-2.76981e-05
5.14192e-05
-2.89419e-05
5.309e-05
-3.02169e-05
5.47737e-05
-3.15227e-05
5.6468e-05
-3.2859e-05
5.81702e-05
-3.42255e-05
5.98774e-05
-3.56219e-05
6.15867e-05
-3.70478e-05
6.32948e-05
-3.85029e-05
6.49979e-05
-3.99867e-05
6.66921e-05
-4.14991e-05
6.83733e-05
-4.30397e-05
7.00367e-05
-4.46083e-05
7.16771e-05
-4.62047e-05
7.3289e-05
-4.78289e-05
7.4866e-05
-4.94808e-05
7.64013e-05
-5.11606e-05
7.78871e-05
-5.28684e-05
7.93149e-05
-5.46047e-05
8.06752e-05
-5.63699e-05
8.19573e-05
-5.81648e-05
8.31492e-05
-5.99902e-05
8.42376e-05
-6.18472e-05
8.52074e-05
-6.37371e-05
8.60417e-05
-6.56613e-05
8.67216e-05
-6.76217e-05
8.72256e-05
-6.962e-05
8.75299e-05
-7.16586e-05
8.76074e-05
-7.37397e-05
8.74279e-05
-7.58659e-05
8.69575e-05
-7.804e-05
8.61582e-05
-8.02647e-05
8.49874e-05
-8.25429e-05
8.33978e-05
-8.48774e-05
8.13363e-05
-8.72707e-05
7.87442e-05
-8.97249e-05
7.5556e-05
-9.22418e-05
7.16994e-05
-9.48218e-05
6.70947e-05
6.16542e-05
-9.74645e-05
-2.32237e-09
9.10913e-08
-9.47141e-09
2.80295e-07
-2.17467e-08
4.81141e-07
-3.94603e-08
6.94127e-07
-6.2937e-08
9.19765e-07
-9.25148e-08
1.15858e-06
-1.28545e-07
1.41111e-06
-1.71391e-07
1.67792e-06
-2.21433e-07
1.95955e-06
-2.79061e-07
2.25661e-06
-3.44683e-07
2.56967e-06
-4.18718e-07
2.89934e-06
-5.01602e-07
3.24624e-06
-5.93782e-07
3.611e-06
-6.95722e-07
3.99424e-06
-8.079e-07
4.39663e-06
-9.30805e-07
4.8188e-06
-1.06494e-06
5.26144e-06
-1.21084e-06
5.72519e-06
-1.36901e-06
6.21074e-06
-1.54002e-06
6.71876e-06
-1.72441e-06
7.24993e-06
-1.92276e-06
7.80492e-06
-2.13565e-06
8.38442e-06
-2.36366e-06
8.9891e-06
-2.60741e-06
9.61961e-06
-2.86749e-06
1.02766e-05
-3.14454e-06
1.09608e-05
-3.43916e-06
1.16727e-05
-3.752e-06
1.24131e-05
-4.08368e-06
1.31824e-05
-4.43484e-06
1.39813e-05
-4.80611e-06
1.48103e-05
-5.19813e-06
1.567e-05
-5.61154e-06
1.65607e-05
-6.04695e-06
1.74831e-05
-6.50498e-06
1.84374e-05
-6.98625e-06
1.94241e-05
-7.49135e-06
2.04435e-05
-8.02087e-06
2.14958e-05
-8.57536e-06
2.25812e-05
-9.15537e-06
2.36999e-05
-9.76142e-06
2.4852e-05
-1.0394e-05
2.60375e-05
-1.10536e-05
2.72562e-05
-1.17407e-05
2.85082e-05
-1.24556e-05
2.97931e-05
-1.31987e-05
3.11107e-05
-1.39703e-05
3.24605e-05
-1.47708e-05
3.3842e-05
-1.56003e-05
3.52547e-05
-1.64591e-05
3.66979e-05
-1.73473e-05
3.81707e-05
-1.8265e-05
3.96723e-05
-1.92123e-05
4.12016e-05
-2.01891e-05
4.27574e-05
-2.11954e-05
4.43386e-05
-2.2231e-05
4.59436e-05
-2.32959e-05
4.75711e-05
-2.43898e-05
4.92192e-05
-2.55124e-05
5.08863e-05
-2.66635e-05
5.25703e-05
-2.78426e-05
5.42691e-05
-2.90495e-05
5.59806e-05
-3.02836e-05
5.77021e-05
-3.15446e-05
5.94312e-05
-3.2832e-05
6.11648e-05
-3.41453e-05
6.29e-05
-3.5484e-05
6.46335e-05
-3.68477e-05
6.63615e-05
-3.82359e-05
6.80803e-05
-3.96481e-05
6.97856e-05
-4.10841e-05
7.14727e-05
-4.25435e-05
7.31365e-05
-4.40261e-05
7.47715e-05
-4.55315e-05
7.63715e-05
-4.706e-05
7.79297e-05
-4.86113e-05
7.94384e-05
-5.01859e-05
8.08894e-05
-5.1784e-05
8.22732e-05
-5.34061e-05
8.35794e-05
-5.5053e-05
8.47961e-05
-5.67256e-05
8.59102e-05
-5.84251e-05
8.69069e-05
-6.01528e-05
8.77695e-05
-6.19105e-05
8.84793e-05
-6.37002e-05
8.90153e-05
-6.55239e-05
8.93536e-05
-6.73843e-05
8.94678e-05
-6.92842e-05
8.93277e-05
-7.12265e-05
8.88999e-05
-7.32148e-05
8.81464e-05
-7.52524e-05
8.70251e-05
-7.73432e-05
8.54886e-05
-7.94909e-05
8.3484e-05
-8.16993e-05
8.09526e-05
-8.39721e-05
7.78288e-05
-8.63126e-05
7.40399e-05
-8.87234e-05
6.95055e-05
6.4137e-05
-9.12062e-05
-2.26262e-09
9.3354e-08
-9.22878e-09
2.87261e-07
-2.11915e-08
4.93103e-07
-3.84558e-08
7.11391e-07
-6.13394e-08
9.42649e-07
-9.01725e-08
1.18741e-06
-1.25298e-07
1.44624e-06
-1.67073e-07
1.71969e-06
-2.15865e-07
2.00835e-06
-2.72059e-07
2.3128e-06
-3.36051e-07
2.63366e-06
-4.0825e-07
2.97154e-06
-4.8908e-07
3.32707e-06
-5.78978e-07
3.7009e-06
-6.78396e-07
4.09366e-06
-7.87797e-07
4.50603e-06
-9.0766e-07
4.93867e-06
-1.03847e-06
5.39225e-06
-1.18074e-06
5.86746e-06
-1.33498e-06
6.36498e-06
-1.50172e-06
6.88549e-06
-1.68149e-06
7.4297e-06
-1.87485e-06
7.99828e-06
-2.08236e-06
8.59193e-06
-2.30458e-06
9.21132e-06
-2.5421e-06
9.85713e-06
-2.79549e-06
1.053e-05
-3.06534e-06
1.12306e-05
-3.35225e-06
1.19596e-05
-3.65683e-06
1.27176e-05
-3.97966e-06
1.35052e-05
-4.32134e-06
1.4323e-05
-4.68248e-06
1.51715e-05
-5.06367e-06
1.60512e-05
-5.46549e-06
1.69626e-05
-5.88853e-06
1.79061e-05
-6.33335e-06
1.88823e-05
-6.80051e-06
1.98913e-05
-7.29055e-06
2.09335e-05
-7.804e-06
2.20092e-05
-8.34135e-06
2.31185e-05
-8.90308e-06
2.42616e-05
-9.48965e-06
2.54386e-05
-1.01015e-05
2.66493e-05
-1.0739e-05
2.78937e-05
-1.14024e-05
2.91717e-05
-1.20922e-05
3.04829e-05
-1.28086e-05
3.18271e-05
-1.35519e-05
3.32037e-05
-1.43221e-05
3.46123e-05
-1.51195e-05
3.60521e-05
-1.59442e-05
3.75226e-05
-1.67961e-05
3.90227e-05
-1.76753e-05
4.05515e-05
-1.85817e-05
4.2108e-05
-1.95151e-05
4.36909e-05
-2.04754e-05
4.52989e-05
-2.14624e-05
4.69306e-05
-2.24758e-05
4.85844e-05
-2.35152e-05
5.02586e-05
-2.45802e-05
5.19513e-05
-2.56703e-05
5.36605e-05
-2.67853e-05
5.5384e-05
-2.79244e-05
5.71197e-05
-2.90871e-05
5.88649e-05
-3.02729e-05
6.0617e-05
-3.14812e-05
6.23731e-05
-3.27114e-05
6.41302e-05
-3.39628e-05
6.58849e-05
-3.5235e-05
6.76337e-05
-3.65272e-05
6.93726e-05
-3.78391e-05
7.10974e-05
-3.917e-05
7.28036e-05
-4.05197e-05
7.44862e-05
-4.18877e-05
7.61395e-05
-4.32738e-05
7.77576e-05
-4.46779e-05
7.93338e-05
-4.61e-05
8.08605e-05
-4.75402e-05
8.23297e-05
-4.8999e-05
8.3732e-05
-5.04768e-05
8.50572e-05
-5.19743e-05
8.62937e-05
-5.34927e-05
8.74285e-05
-5.5033e-05
8.84472e-05
-5.65969e-05
8.93334e-05
-5.81861e-05
9.00686e-05
-5.98029e-05
9.0632e-05
-6.14496e-05
9.10004e-05
-6.31292e-05
9.11473e-05
-6.48447e-05
9.10433e-05
-6.65998e-05
9.06549e-05
-6.83983e-05
8.99449e-05
-7.02445e-05
8.88712e-05
-7.21428e-05
8.73869e-05
-7.40981e-05
8.54393e-05
-7.61151e-05
8.29697e-05
-7.81991e-05
7.99127e-05
-8.03546e-05
7.61955e-05
-8.25864e-05
7.17373e-05
6.64488e-05
-8.48981e-05
-2.21159e-09
9.55655e-08
-9.02157e-09
2.94071e-07
-2.07173e-08
5.04799e-07
-3.7598e-08
7.28272e-07
-5.99751e-08
9.65026e-07
-8.8172e-08
1.21561e-06
-1.22525e-07
1.48059e-06
-1.63383e-07
1.76055e-06
-2.11108e-07
2.05607e-06
-2.66074e-07
2.36777e-06
-3.28669e-07
2.69625e-06
-3.99294e-07
3.04216e-06
-4.78362e-07
3.40614e-06
-5.663e-07
3.78883e-06
-6.63548e-07
4.19091e-06
-7.70558e-07
4.61304e-06
-8.87795e-07
5.0559e-06
-1.01574e-06
5.52019e-06
-1.15487e-06
6.00659e-06
-1.30569e-06
6.5158e-06
-1.46872e-06
7.04852e-06
-1.64447e-06
7.60545e-06
-1.83348e-06
8.18729e-06
-2.03628e-06
8.79473e-06
-2.25341e-06
9.42846e-06
-2.48544e-06
1.00892e-05
-2.73292e-06
1.07775e-05
-2.99641e-06
1.14941e-05
-3.27648e-06
1.22397e-05
-3.57369e-06
1.30149e-05
-3.8886e-06
1.38201e-05
-4.22179e-06
1.46562e-05
-4.5738e-06
1.55235e-05
-4.9452e-06
1.64225e-05
-5.33651e-06
1.73539e-05
-5.74828e-06
1.83179e-05
-6.18102e-06
1.9315e-05
-6.63523e-06
2.03455e-05
-7.1114e-06
2.14097e-05
-7.60999e-06
2.25078e-05
-8.13142e-06
2.364e-05
-8.67612e-06
2.48063e-05
-9.24446e-06
2.60069e-05
-9.83679e-06
2.72416e-05
-1.04534e-05
2.85103e-05
-1.10946e-05
2.98129e-05
-1.17606e-05
3.11489e-05
-1.24515e-05
3.2518e-05
-1.31676e-05
3.39198e-05
-1.39088e-05
3.53535e-05
-1.46753e-05
3.68186e-05
-1.5467e-05
3.83142e-05
-1.62838e-05
3.98395e-05
-1.71256e-05
4.13933e-05
-1.79922e-05
4.29746e-05
-1.88833e-05
4.4582e-05
-1.97987e-05
4.62143e-05
-2.0738e-05
4.78699e-05
-2.17007e-05
4.95471e-05
-2.26864e-05
5.12443e-05
-2.36945e-05
5.29594e-05
-2.47246e-05
5.46905e-05
-2.57759e-05
5.64354e-05
-2.68478e-05
5.81916e-05
-2.79397e-05
5.99567e-05
-2.90508e-05
6.17281e-05
-3.01804e-05
6.35027e-05
-3.13278e-05
6.52776e-05
-3.24922e-05
6.70494e-05
-3.3673e-05
6.88145e-05
-3.48694e-05
7.0569e-05
-3.60809e-05
7.23089e-05
-3.73068e-05
7.40296e-05
-3.85466e-05
7.5726e-05
-3.98e-05
7.73929e-05
-4.10665e-05
7.90242e-05
-4.23461e-05
8.06133e-05
-4.36386e-05
8.21531e-05
-4.49443e-05
8.36353e-05
-4.62634e-05
8.50511e-05
-4.75964e-05
8.63902e-05
-4.89441e-05
8.76414e-05
-5.03076e-05
8.8792e-05
-5.16882e-05
8.98278e-05
-5.30874e-05
9.07326e-05
-5.45073e-05
9.14884e-05
-5.59501e-05
9.20749e-05
-5.74187e-05
9.24689e-05
-5.8916e-05
9.26446e-05
-6.04456e-05
9.25729e-05
-6.20115e-05
9.22208e-05
-6.3618e-05
9.15514e-05
-6.52699e-05
9.05232e-05
-6.69726e-05
8.90895e-05
-6.87316e-05
8.71983e-05
-7.05528e-05
8.47909e-05
-7.24424e-05
8.18023e-05
-7.44067e-05
7.81598e-05
-7.64518e-05
7.37824e-05
6.85807e-05
-7.85838e-05
-2.17002e-09
9.77356e-08
-8.85283e-09
3.00753e-07
-2.03312e-08
5.16277e-07
-3.68994e-08
7.4484e-07
-5.88637e-08
9.8699e-07
-8.65422e-08
1.24329e-06
-1.20265e-07
1.51432e-06
-1.60375e-07
1.80066e-06
-2.07228e-07
2.10292e-06
-2.6119e-07
2.42173e-06
-3.22643e-07
2.75771e-06
-3.91977e-07
3.1115e-06
-4.69599e-07
3.48376e-06
-5.55926e-07
3.87516e-06
-6.51387e-07
4.28637e-06
-7.56423e-07
4.71808e-06
-8.71488e-07
5.17097e-06
-9.97045e-07
5.64575e-06
-1.13357e-06
6.14311e-06
-1.28155e-06
6.66378e-06
-1.44147e-06
7.20845e-06
-1.61384e-06
7.77783e-06
-1.79918e-06
8.37262e-06
-1.998e-06
8.99354e-06
-2.21081e-06
9.64128e-06
-2.43817e-06
1.03165e-05
-2.68058e-06
1.10199e-05
-2.9386e-06
1.17522e-05
-3.21275e-06
1.25139e-05
-3.50357e-06
1.33057e-05
-3.81158e-06
1.41282e-05
-4.13732e-06
1.49819e-05
-4.4813e-06
1.58674e-05
-4.84402e-06
1.67853e-05
-5.22599e-06
1.77359e-05
-5.62768e-06
1.87196e-05
-6.04957e-06
1.97369e-05
-6.49209e-06
2.0788e-05
-6.95566e-06
2.18733e-05
-7.44069e-06
2.29928e-05
-7.94754e-06
2.41468e-05
-8.47655e-06
2.53353e-05
-9.02802e-06
2.65584e-05
-9.60222e-06
2.78158e-05
-1.01994e-05
2.91075e-05
-1.08196e-05
3.04331e-05
-1.14632e-05
3.17924e-05
-1.213e-05
3.31849e-05
-1.28203e-05
3.461e-05
-1.35339e-05
3.60671e-05
-1.42708e-05
3.75555e-05
-1.50308e-05
3.90743e-05
-1.58137e-05
4.06224e-05
-1.66194e-05
4.21989e-05
-1.74474e-05
4.38026e-05
-1.82975e-05
4.54321e-05
-1.9169e-05
4.70859e-05
-2.00617e-05
4.87625e-05
-2.09748e-05
5.04603e-05
-2.19078e-05
5.21773e-05
-2.28601e-05
5.39117e-05
-2.38309e-05
5.56613e-05
-2.48195e-05
5.74239e-05
-2.5825e-05
5.91971e-05
-2.68467e-05
6.09785e-05
-2.78838e-05
6.27651e-05
-2.89353e-05
6.45542e-05
-3.00005e-05
6.63427e-05
-3.10784e-05
6.81273e-05
-3.21683e-05
6.99044e-05
-3.32694e-05
7.16701e-05
-3.43809e-05
7.34204e-05
-3.55022e-05
7.51508e-05
-3.66326e-05
7.68564e-05
-3.77717e-05
7.85319e-05
-3.8919e-05
8.01715e-05
-4.00743e-05
8.17687e-05
-4.12376e-05
8.33164e-05
-4.2409e-05
8.48067e-05
-4.35886e-05
8.62307e-05
-4.47771e-05
8.75787e-05
-4.59753e-05
8.88396e-05
-4.71842e-05
9.00009e-05
-4.84051e-05
9.10487e-05
-4.96399e-05
9.19674e-05
-5.08906e-05
9.27391e-05
-5.21596e-05
9.33439e-05
-5.34498e-05
9.37592e-05
-5.47647e-05
9.39595e-05
-5.6108e-05
9.39162e-05
-5.74841e-05
9.35969e-05
-5.88977e-05
9.2965e-05
-6.03543e-05
9.19797e-05
-6.18596e-05
9.05949e-05
-6.34202e-05
8.87588e-05
-6.50427e-05
8.64135e-05
-6.67346e-05
8.34941e-05
-6.85032e-05
7.99284e-05
-7.03564e-05
7.56356e-05
7.05262e-05
-7.23018e-05
-2.13859e-09
9.98741e-08
-8.72525e-09
3.0734e-07
-2.00393e-08
5.27591e-07
-3.63712e-08
7.61172e-07
-5.80233e-08
1.00864e-06
-8.53093e-08
1.27058e-06
-1.18555e-07
1.54756e-06
-1.58098e-07
1.8402e-06
-2.04288e-07
2.14911e-06
-2.57486e-07
2.47493e-06
-3.18067e-07
2.81829e-06
-3.86415e-07
3.17985e-06
-4.62928e-07
3.56028e-06
-5.48016e-07
3.96025e-06
-6.42098e-07
4.38045e-06
-7.45606e-07
4.82158e-06
-8.58983e-07
5.28434e-06
-9.82679e-07
5.76944e-06
-1.11716e-06
6.27759e-06
-1.26289e-06
6.80951e-06
-1.42036e-06