/*--------------------------------*- C++ -*----------------------------------*\
| =========                 |                                                 |
| \\      /  F ield         | OpenFOAM: The Open Source CFD Toolbox           |
|  \\    /   O peration     | Version:  2406                                  |
|   \\  /    A nd           | Website:  www.openfoam.com                      |
|    \\/     M anipulation  |                                                 |
\*---------------------------------------------------------------------------*/
FoamFile
{
    version     2.0;
    format      ascii;
    arch        "LSB;label=32;scalar=64";
    class       volScalarField;
    location    "13";
    object      p;
}
// * * * * * * * * * * * * * * * * * * * * * * * * * * * * * * * * * * * * * //

dimensions      [0 2 -2 0 0 0 0];

internalField   nonuniform List<scalar> 
30000
(
5.6388875e-13
-3.2584879e-12
-5.7821748e-12
-7.5951681e-12
-8.9240634e-12
-9.9682869e-12
-1.0821183e-11
-1.1545942e-11
-1.2175548e-11
-1.2727531e-11
-1.3215302e-11
-1.3650335e-11
-1.4044636e-11
-1.4408228e-11
-1.4733282e-11
-1.5035294e-11
-1.5315049e-11
-1.5572746e-11
-1.5811225e-11
-1.6030871e-11
-1.6235052e-11
-1.642728e-11
-1.6615265e-11
-1.6780825e-11
-1.6938164e-11
-1.708561e-11
-1.722528e-11
-1.7358746e-11
-1.7485581e-11
-1.7611536e-11
-1.7730391e-11
-1.7838774e-11
-1.7951198e-11
-1.8058737e-11
-1.8156147e-11
-1.8255759e-11
-1.8356455e-11
-1.8451488e-11
-1.8547774e-11
-1.8636671e-11
-1.872932e-11
-1.881494e-11
-1.8907439e-11
-1.8999257e-11
-1.9080455e-11
-1.9164945e-11
-1.9245621e-11
-1.9319486e-11
-1.9395721e-11
-1.9472231e-11
-1.9541117e-11
-1.9604113e-11
-1.9666852e-11
-1.9730217e-11
-1.9802243e-11
-1.9868905e-11
-1.9942269e-11
-2.0008312e-11
-2.0072585e-11
-2.013908e-11
-2.0201464e-11
-2.0254378e-11
-2.0313404e-11
-2.0375277e-11
-2.0430637e-11
-2.0488633e-11
-2.0535271e-11
-2.0587684e-11
-2.0640266e-11
-2.0683753e-11
-2.0736584e-11
-2.0788151e-11
-2.0836499e-11
-2.0865862e-11
-2.0903605e-11
-2.0946898e-11
-2.0979002e-11
-2.1014767e-11
-2.1058955e-11
-2.1104157e-11
-2.1146277e-11
-2.1195565e-11
-2.1248589e-11
-2.1293033e-11
-2.1330909e-11
-2.1374506e-11
-2.1409359e-11
-2.14339e-11
-2.1464642e-11
-2.1498216e-11
-2.1532497e-11
-2.156267e-11
-2.1587647e-11
-2.1611138e-11
-2.1635896e-11
-2.165456e-11
-2.1691696e-11
-2.1724925e-11
-2.1743961e-11
-2.176925e-11
-2.1800976e-11
-2.1832176e-11
-2.1859283e-11
-2.1890428e-11
-2.1916914e-11
-2.1932266e-11
-2.1956645e-11
-2.1977047e-11
-2.1987718e-11
-2.1999323e-11
-2.2004203e-11
-2.2012183e-11
-2.2031741e-11
-2.2056205e-11
-2.2064121e-11
-2.2065019e-11
-2.2077229e-11
-2.2095153e-11
-2.2104568e-11
-2.2099308e-11
-2.2101475e-11
-2.2105874e-11
-2.2107364e-11
-2.2092614e-11
-2.2075723e-11
-2.2077967e-11
-2.2072513e-11
-2.206189e-11
-2.2054113e-11
-2.2039135e-11
-2.2021226e-11
-2.2011635e-11
-2.2004557e-11
-2.1983222e-11
-2.1966637e-11
-2.1957659e-11
-2.194154e-11
-2.1927501e-11
-2.1926488e-11
-2.1919353e-11
-2.1894268e-11
-2.1885687e-11
-2.1892954e-11
-2.1888656e-11
-2.1863482e-11
-2.1849097e-11
-2.1839557e-11
-2.1818659e-11
-2.1805452e-11
-2.1805204e-11
-2.1780023e-11
-2.1764033e-11
-2.1755301e-11
-2.1732091e-11
-2.1714145e-11
-2.1701556e-11
-2.1676841e-11
-2.1663823e-11
-2.1649749e-11
-2.1635259e-11
-2.1612949e-11
-2.1597791e-11
-2.1592096e-11
-2.1590714e-11
-2.1585688e-11
-2.1578619e-11
-2.1576723e-11
-2.1560167e-11
-2.1561244e-11
-2.1542058e-11
-2.1517254e-11
-2.1523905e-11
-2.1513153e-11
-2.1486279e-11
-2.1485181e-11
-2.1491417e-11
-2.149425e-11
-2.1490641e-11
-2.1490171e-11
-2.1499537e-11
-2.1489231e-11
-2.1485606e-11
-2.1489052e-11
-2.1492714e-11
-2.1503555e-11
-2.1491535e-11
-2.1474102e-11
-2.1479195e-11
-2.1473086e-11
-2.1465723e-11
-2.1463517e-11
-2.1461795e-11
-2.1463135e-11
-2.1483105e-11
-2.1487296e-11
-2.1476353e-11
-2.1471243e-11
-2.145882e-11
-2.1433608e-11
-2.1425972e-11
-2.1433706e-11
-2.1424119e-11
-2.1429083e-11
-2.1423409e-11
-2.1408405e-11
-2.1387944e-11
-2.1363181e-11
-2.1352579e-11
-2.1338077e-11
-2.1320675e-11
-2.1311159e-11
-2.1287336e-11
-2.1267316e-11
-2.1260245e-11
-2.122508e-11
-2.1196877e-11
-2.1172944e-11
-2.1146888e-11
-2.112077e-11
-2.1088309e-11
-2.1037514e-11
-2.09888e-11
-2.0955504e-11
-2.0926629e-11
-2.090754e-11
-2.0887992e-11
-2.0862144e-11
-2.0838981e-11
-2.0803718e-11
-2.0760301e-11
-2.0714488e-11
-2.0672224e-11
-2.0656582e-11
-2.0629467e-11
-2.05973e-11
-2.0582159e-11
-2.0553064e-11
-2.0515092e-11
-2.0467424e-11
-2.0440298e-11
-2.0402332e-11
-2.0367469e-11
-2.0345535e-11
-2.0315988e-11
-2.0262099e-11
-2.0221029e-11
-2.0193183e-11
-2.014491e-11
-2.0106509e-11
-2.0066135e-11
-2.0032944e-11
-2.0002972e-11
-1.9968109e-11
-1.9902712e-11
-1.9845481e-11
-1.9798858e-11
-1.9736633e-11
-1.9668608e-11
-1.9620374e-11
-1.9559944e-11
-1.9493716e-11
-1.9422189e-11
-1.9325333e-11
-1.9248003e-11
-1.9155817e-11
-1.9064793e-11
-1.897128e-11
-1.8847393e-11
-1.8749284e-11
-1.8651273e-11
-1.8490994e-11
-1.8354406e-11
-1.8231577e-11
-1.8086748e-11
-1.7943085e-11
-1.777039e-11
-1.7623047e-11
-1.7464768e-11
-1.7260227e-11
-1.7041634e-11
-1.6827097e-11
-1.6603854e-11
-1.6362362e-11
-1.6102313e-11
-1.5819022e-11
-1.5528455e-11
-1.5187488e-11
-1.483026e-11
-1.445627e-11
-1.4018486e-11
-1.3528573e-11
-1.3013905e-11
-1.2436458e-11
-1.1790229e-11
-1.105943e-11
-1.015178e-11
-9.0498132e-12
-7.7108981e-12
-5.8758774e-12
-3.3064067e-12
-3.9947684e-12
-5.1912071e-12
-6.7267373e-12
-8.0887257e-12
-9.2220762e-12
-1.0163937e-11
-1.0960618e-11
-1.1652925e-11
-1.2256541e-11
-1.2791256e-11
-1.3265359e-11
-1.3692326e-11
-1.4081584e-11
-1.4438701e-11
-1.4760648e-11
-1.50616e-11
-1.5334629e-11
-1.5591333e-11
-1.583091e-11
-1.604764e-11
-1.6250453e-11
-1.6440997e-11
-1.6626443e-11
-1.679199e-11
-1.6947892e-11
-1.7091933e-11
-1.7228832e-11
-1.7365716e-11
-1.7496499e-11
-1.7619414e-11
-1.7736641e-11
-1.7839155e-11
-1.7956572e-11
-1.8059453e-11
-1.8157728e-11
-1.8258645e-11
-1.8359316e-11
-1.8452009e-11
-1.854905e-11
-1.8639486e-11
-1.8726939e-11
-1.8816724e-11
-1.8909682e-11
-1.8997215e-11
-1.9083875e-11
-1.9168496e-11
-1.9248532e-11
-1.9322269e-11
-1.9398487e-11
-1.9474245e-11
-1.9546746e-11
-1.9604966e-11
-1.9668749e-11
-1.9731374e-11
-1.9802339e-11
-1.9870055e-11
-1.9943419e-11
-2.0007565e-11
-2.0076302e-11
-2.0145512e-11
-2.0196295e-11
-2.0252173e-11
-2.0316706e-11
-2.0374911e-11
-2.0434662e-11
-2.0492991e-11
-2.0536486e-11
-2.0585926e-11
-2.0637847e-11
-2.0689998e-11
-2.0743991e-11
-2.0790364e-11
-2.0831388e-11
-2.0862199e-11
-2.0900339e-11
-2.094135e-11
-2.0981807e-11
-2.1018312e-11
-2.1056818e-11
-2.1097102e-11
-2.1146287e-11
-2.1192814e-11
-2.1248447e-11
-2.1296423e-11
-2.1335209e-11
-2.1373066e-11
-2.1405044e-11
-2.1438569e-11
-2.1468104e-11
-2.1500556e-11
-2.1531207e-11
-2.1555918e-11
-2.1583326e-11
-2.1613367e-11
-2.1637172e-11
-2.1662801e-11
-2.1689884e-11
-2.1721463e-11
-2.1746071e-11
-2.1768128e-11
-2.1802989e-11
-2.1829793e-11
-2.1861636e-11
-2.1893954e-11
-2.191712e-11
-2.1940324e-11
-2.1966142e-11
-2.1976188e-11
-2.1981723e-11
-2.1997932e-11
-2.2006659e-11
-2.2016117e-11
-2.2028435e-11
-2.2050387e-11
-2.2066068e-11
-2.2069834e-11
-2.2088347e-11
-2.2101343e-11
-2.2104344e-11
-2.2096945e-11
-2.2098623e-11
-2.2105011e-11
-2.2107819e-11
-2.2094177e-11
-2.2085063e-11
-2.2074707e-11
-2.2067796e-11
-2.206911e-11
-2.2057575e-11
-2.2045753e-11
-2.2027085e-11
-2.2011809e-11
-2.1997429e-11
-2.1981956e-11
-2.1964604e-11
-2.1952337e-11
-2.1936914e-11
-2.193103e-11
-2.1928712e-11
-2.1919953e-11
-2.1897474e-11
-2.1891431e-11
-2.1895611e-11
-2.1885807e-11
-2.1863118e-11
-2.1840877e-11
-2.1838554e-11
-2.1822803e-11
-2.1805506e-11
-2.1802329e-11
-2.1785888e-11
-2.1764625e-11
-2.174916e-11
-2.1737215e-11
-2.171672e-11
-2.1697352e-11
-2.168753e-11
-2.1666176e-11
-2.1639892e-11
-2.1626023e-11
-2.1613052e-11
-2.159997e-11
-2.1595548e-11
-2.1592472e-11
-2.1586911e-11
-2.1575934e-11
-2.1578039e-11
-2.1569495e-11
-2.1556331e-11
-2.1535034e-11
-2.1524157e-11
-2.1515566e-11
-2.1503673e-11
-2.1497437e-11
-2.148661e-11
-2.1489389e-11
-2.1490685e-11
-2.1488498e-11
-2.1491631e-11
-2.1501214e-11
-2.1496427e-11
-2.1493027e-11
-2.1484472e-11
-2.1487232e-11
-2.1497519e-11
-2.1490423e-11
-2.1477852e-11
-2.1473994e-11
-2.1469815e-11
-2.1467366e-11
-2.1469222e-11
-2.1467846e-11
-2.1462944e-11
-2.1480497e-11
-2.1477509e-11
-2.14776e-11
-2.1471259e-11
-2.1453437e-11
-2.144215e-11
-2.1437606e-11
-2.1426672e-11
-2.142201e-11
-2.1424016e-11
-2.1419343e-11
-2.1410199e-11
-2.1397231e-11
-2.1367205e-11
-2.1346404e-11
-2.133107e-11
-2.1323753e-11
-2.1314245e-11
-2.1294304e-11
-2.127781e-11
-2.1253202e-11
-2.1227083e-11
-2.1206883e-11
-2.1168248e-11
-2.1142292e-11
-2.1120431e-11
-2.1085546e-11
-2.1037327e-11
-2.0999605e-11
-2.0964777e-11
-2.092989e-11
-2.09055e-11
-2.0884613e-11
-2.0854117e-11
-2.0831771e-11
-2.0804604e-11
-2.0756649e-11
-2.0721869e-11
-2.0682596e-11
-2.0650949e-11
-2.0631133e-11
-2.060175e-11
-2.0574257e-11
-2.0549414e-11
-2.0505932e-11
-2.0472631e-11
-2.0443218e-11
-2.0407717e-11
-2.0375433e-11
-2.0334567e-11
-2.0312785e-11
-2.0267029e-11
-2.0216011e-11
-2.0188026e-11
-2.0156033e-11
-2.011487e-11
-2.007904e-11
-2.0036779e-11
-1.9993544e-11
-1.9957909e-11
-1.9901815e-11
-1.9846907e-11
-1.9797682e-11
-1.974987e-11
-1.9683386e-11
-1.9619472e-11
-1.9559832e-11
-1.9495647e-11
-1.9424402e-11
-1.9336073e-11
-1.9253596e-11
-1.9157012e-11
-1.9068209e-11
-1.8977081e-11
-1.8862574e-11
-1.8750964e-11
-1.8641034e-11
-1.8507878e-11
-1.8370772e-11
-1.8236524e-11
-1.8094072e-11
-1.7940127e-11
-1.778822e-11
-1.7632308e-11
-1.7458454e-11
-1.7263991e-11
-1.7068947e-11
-1.6850596e-11
-1.661989e-11
-1.6378812e-11
-1.6126814e-11
-1.5840191e-11
-1.5542252e-11
-1.5224772e-11
-1.4870986e-11
-1.4486702e-11
-1.4052096e-11
-1.3587537e-11
-1.3077345e-11
-1.2513613e-11
-1.1893874e-11
-1.1185984e-11
-1.0344097e-11
-9.3686117e-12
-8.2101147e-12
-6.8103722e-12
-5.2372787e-12
-6.5704779e-12
-7.0230321e-12
-7.8718076e-12
-8.8219138e-12
-9.7032757e-12
-1.0503324e-11
-1.1208635e-11
-1.1837227e-11
-1.240304e-11
-1.290914e-11
-1.3363244e-11
-1.377008e-11
-1.4145706e-11
-1.45016e-11
-1.4809632e-11
-1.5104988e-11
-1.5378592e-11
-1.5635593e-11
-1.5858449e-11
-1.6075687e-11
-1.6282454e-11
-1.6459634e-11
-1.6637694e-11
-1.6807058e-11
-1.6965229e-11
-1.7108545e-11
-1.7231387e-11
-1.7372626e-11
-1.7518082e-11
-1.7623693e-11
-1.7738452e-11
-1.7859296e-11
-1.7961772e-11
-1.8055588e-11
-1.8156273e-11
-1.8270347e-11
-1.8365905e-11
-1.8461156e-11
-1.8548234e-11
-1.8640048e-11
-1.873626e-11
-1.8828819e-11
-1.8913841e-11
-1.9008524e-11
-1.9088041e-11
-1.9165079e-11
-1.9254107e-11
-1.9329327e-11
-1.9404702e-11
-1.9482106e-11
-1.954902e-11
-1.9618638e-11
-1.9675484e-11
-1.9730492e-11
-1.979876e-11
-1.9874116e-11
-1.9946884e-11
-2.0012681e-11
-2.0080173e-11
-2.0152831e-11
-2.0195894e-11
-2.0256306e-11
-2.0316179e-11
-2.0380204e-11
-2.0435667e-11
-2.0500478e-11
-2.0540416e-11
-2.0587014e-11
-2.0640876e-11
-2.0692468e-11
-2.0751559e-11
-2.0794187e-11
-2.0830487e-11
-2.0862752e-11
-2.0893809e-11
-2.0933415e-11
-2.0976398e-11
-2.1012255e-11
-2.1055439e-11
-2.1095587e-11
-2.114674e-11
-2.1196716e-11
-2.1253712e-11
-2.1301434e-11
-2.1341065e-11
-2.1380577e-11
-2.1407166e-11
-2.144497e-11
-2.1467508e-11
-2.1498943e-11
-2.1520361e-11
-2.1552441e-11
-2.1585536e-11
-2.1609297e-11
-2.1638711e-11
-2.1664642e-11
-2.1691197e-11
-2.1713274e-11
-2.1741486e-11
-2.1769567e-11
-2.1807039e-11
-2.1842974e-11
-2.1868598e-11
-2.1898526e-11
-2.1919289e-11
-2.1951189e-11
-2.1974419e-11
-2.1977672e-11
-2.197743e-11
-2.1993438e-11
-2.2006079e-11
-2.2014518e-11
-2.2030749e-11
-2.204651e-11
-2.2069192e-11
-2.2077809e-11
-2.2092957e-11
-2.2097557e-11
-2.2101994e-11
-2.2103777e-11
-2.2101453e-11
-2.2108411e-11
-2.2107051e-11
-2.2100141e-11
-2.2091419e-11
-2.2075372e-11
-2.206905e-11
-2.2075988e-11
-2.2055217e-11
-2.2049065e-11
-2.2033559e-11
-2.2010922e-11
-2.199795e-11
-2.1978093e-11
-2.1963296e-11
-2.19508e-11
-2.1929166e-11
-2.1932859e-11
-2.1926237e-11
-2.192481e-11
-2.1901191e-11
-2.1890207e-11
-2.1901074e-11
-2.1889574e-11
-2.1864386e-11
-2.1840855e-11
-2.1832671e-11
-2.1812629e-11
-2.181337e-11
-2.1814454e-11
-2.1787857e-11
-2.176997e-11
-2.1747172e-11
-2.1737806e-11
-2.1715772e-11
-2.1697867e-11
-2.1689516e-11
-2.1665196e-11
-2.163474e-11
-2.1625024e-11
-2.1606931e-11
-2.1599817e-11
-2.1589493e-11
-2.1588566e-11
-2.1594447e-11
-2.1577576e-11
-2.157535e-11
-2.1573555e-11
-2.1556307e-11
-2.153508e-11
-2.1538752e-11
-2.1512281e-11
-2.1495723e-11
-2.1496873e-11
-2.1482082e-11
-2.1485946e-11
-2.1480602e-11
-2.1491293e-11
-2.1495389e-11
-2.1500968e-11
-2.1503659e-11
-2.1491728e-11
-2.148295e-11
-2.14836e-11
-2.148821e-11
-2.1495931e-11
-2.1486884e-11
-2.1472281e-11
-2.1472423e-11
-2.1476147e-11
-2.1467905e-11
-2.1462748e-11
-2.1471904e-11
-2.1477761e-11
-2.1478679e-11
-2.148553e-11
-2.1483152e-11
-2.14587e-11
-2.1442315e-11
-2.143655e-11
-2.1422808e-11
-2.1425776e-11
-2.14246e-11
-2.1418484e-11
-2.1418369e-11
-2.1401703e-11
-2.1375151e-11
-2.1352543e-11
-2.1337607e-11
-2.1319579e-11
-2.1321499e-11
-2.1300601e-11
-2.1284379e-11
-2.125454e-11
-2.1226209e-11
-2.1213459e-11
-2.1166548e-11
-2.1144116e-11
-2.1127276e-11
-2.1084344e-11
-2.1037452e-11
-2.1010897e-11
-2.0961625e-11
-2.0923298e-11
-2.0889749e-11
-2.0886022e-11
-2.086508e-11
-2.0832147e-11
-2.080263e-11
-2.0764635e-11
-2.0732634e-11
-2.0682926e-11
-2.0649297e-11
-2.0620589e-11
-2.0605536e-11
-2.0575556e-11
-2.0544818e-11
-2.0501971e-11
-2.0471256e-11
-2.0443295e-11
-2.0419369e-11
-2.0381958e-11
-2.0333506e-11
-2.0312909e-11
-2.0273425e-11
-2.0221077e-11
-2.0188322e-11
-2.0152556e-11
-2.0120145e-11
-2.0091037e-11
-2.0043387e-11
-1.9992651e-11
-1.9950147e-11
-1.9913207e-11
-1.9861995e-11
-1.979191e-11
-1.9755582e-11
-1.9699887e-11
-1.9627259e-11
-1.9555594e-11
-1.9510189e-11
-1.9432303e-11
-1.9346955e-11
-1.9253595e-11
-1.9181515e-11
-1.908246e-11
-1.8989326e-11
-1.8888201e-11
-1.8759093e-11
-1.8634882e-11
-1.8518846e-11
-1.8388135e-11
-1.8256793e-11
-1.8101821e-11
-1.794597e-11
-1.7818664e-11
-1.7648882e-11
-1.7457929e-11
-1.7284755e-11
-1.7109402e-11
-1.6883994e-11
-1.6644911e-11
-1.6402663e-11
-1.615392e-11
-1.5876656e-11
-1.5592072e-11
-1.5290098e-11
-1.4933517e-11
-1.4554434e-11
-1.4135884e-11
-1.3688909e-11
-1.3191875e-11
-1.2659832e-11
-1.2075497e-11
-1.1415123e-11
-1.0670783e-11
-9.8539656e-12
-8.9388174e-12
-7.9598394e-12
-7.0632419e-12
-8.2838766e-12
-8.4851714e-12
-8.953554e-12
-9.5927099e-12
-1.0280712e-11
-1.093549e-11
-1.1538038e-11
-1.210152e-11
-1.2612342e-11
-1.3079595e-11
-1.3504799e-11
-1.388521e-11
-1.4244504e-11
-1.4574661e-11
-1.4884847e-11
-1.517679e-11
-1.5441492e-11
-1.5696109e-11
-1.5909226e-11
-1.611732e-11
-1.6320916e-11
-1.6482743e-11
-1.6671234e-11
-1.6815176e-11
-1.6968723e-11
-1.71307e-11
-1.7268279e-11
-1.7401106e-11
-1.7521502e-11
-1.7633817e-11
-1.775827e-11
-1.7864731e-11
-1.7975247e-11
-1.8076705e-11
-1.8166181e-11
-1.8274658e-11
-1.8382371e-11
-1.8475371e-11
-1.8555945e-11
-1.8651475e-11
-1.8739134e-11
-1.8840497e-11
-1.8913383e-11
-1.9010961e-11
-1.9087183e-11
-1.9173492e-11
-1.9262958e-11
-1.9339072e-11
-1.9410157e-11
-1.9479864e-11
-1.9554385e-11
-1.9622849e-11
-1.9675135e-11
-1.9741826e-11
-1.9792565e-11
-1.9869706e-11
-1.9941277e-11
-2.0021721e-11
-2.008875e-11
-2.0148854e-11
-2.0200819e-11
-2.0264246e-11
-2.0320265e-11
-2.0373293e-11
-2.0445699e-11
-2.0509692e-11
-2.0549778e-11
-2.0593618e-11
-2.0644701e-11
-2.0690908e-11
-2.0754533e-11
-2.0804482e-11
-2.0830617e-11
-2.0855219e-11
-2.0896842e-11
-2.0933672e-11
-2.098544e-11
-2.1022723e-11
-2.107001e-11
-2.1102493e-11
-2.1148254e-11
-2.120008e-11
-2.1269076e-11
-2.1310533e-11
-2.1357256e-11
-2.139337e-11
-2.1418437e-11
-2.144214e-11
-2.147437e-11
-2.1502007e-11
-2.1516444e-11
-2.1531776e-11
-2.1579145e-11
-2.1601998e-11
-2.1650869e-11
-2.167734e-11
-2.1680362e-11
-2.1707212e-11
-2.1742658e-11
-2.1788266e-11
-2.1814718e-11
-2.1863849e-11
-2.187998e-11
-2.1903416e-11
-2.1923287e-11
-2.1954356e-11
-2.1970778e-11
-2.1994168e-11
-2.1964809e-11
-2.1996581e-11
-2.2012211e-11
-2.2014178e-11
-2.2028274e-11
-2.204751e-11
-2.2066665e-11
-2.2084272e-11
-2.2099428e-11
-2.2091128e-11
-2.2092331e-11
-2.2102816e-11
-2.2113764e-11
-2.2118952e-11
-2.2110452e-11
-2.2098949e-11
-2.2091559e-11
-2.2083765e-11
-2.2079949e-11
-2.2086295e-11
-2.2058873e-11
-2.2042214e-11
-2.204241e-11
-2.2016764e-11
-2.2004598e-11
-2.1986062e-11
-2.196963e-11
-2.1949426e-11
-2.1942111e-11
-2.1938077e-11
-2.1920893e-11
-2.1917001e-11
-2.1903172e-11
-2.1900779e-11
-2.1897208e-11
-2.1884794e-11
-2.1872053e-11
-2.1855335e-11
-2.1837194e-11
-2.1825723e-11
-2.182841e-11
-2.1815555e-11
-2.1786068e-11
-2.1766687e-11
-2.174535e-11
-2.1731417e-11
-2.1717425e-11
-2.1697722e-11
-2.1688023e-11
-2.1666481e-11
-2.1640127e-11
-2.1618565e-11
-2.1606974e-11
-2.1594977e-11
-2.1586433e-11
-2.1584306e-11
-2.1592754e-11
-2.1575248e-11
-2.1582216e-11
-2.1574569e-11
-2.1560664e-11
-2.1532424e-11
-2.1535214e-11
-2.152553e-11
-2.1501248e-11
-2.1483252e-11
-2.1480877e-11
-2.1484837e-11
-2.1462993e-11
-2.1492995e-11
-2.150655e-11
-2.1502787e-11
-2.1496795e-11
-2.1485743e-11
-2.148595e-11
-2.1479552e-11
-2.1488688e-11
-2.1492646e-11
-2.1486623e-11
-2.1467423e-11
-2.1470546e-11
-2.147598e-11
-2.1480093e-11
-2.1473669e-11
-2.1472811e-11
-2.1477578e-11
-2.1480705e-11
-2.1480407e-11
-2.1481974e-11
-2.1478685e-11
-2.1455655e-11
-2.1432421e-11
-2.1436323e-11
-2.143165e-11
-2.143112e-11
-2.1416362e-11
-2.1423675e-11
-2.140431e-11
-2.1379153e-11
-2.1364002e-11
-2.1341733e-11
-2.1333765e-11
-2.1321502e-11
-2.1303515e-11
-2.1293223e-11
-2.1264715e-11
-2.1237846e-11
-2.1209254e-11
-2.118191e-11
-2.1151216e-11
-2.1117198e-11
-2.1081205e-11
-2.1041404e-11
-2.1004615e-11
-2.0956753e-11
-2.0919747e-11
-2.088635e-11
-2.0896223e-11
-2.0864989e-11
-2.0827786e-11
-2.0796052e-11
-2.0780972e-11
-2.0734866e-11
-2.0684651e-11
-2.0658306e-11
-2.0622192e-11
-2.0617046e-11
-2.0569891e-11
-2.0544903e-11
-2.0512153e-11
-2.0478369e-11
-2.0436106e-11
-2.0425886e-11
-2.0392385e-11
-2.0346355e-11
-2.0300285e-11
-2.0273203e-11
-2.0232191e-11
-2.019504e-11
-2.0153305e-11
-2.0127529e-11
-2.0089553e-11
-2.004883e-11
-2.0020258e-11
-1.9956938e-11
-1.9913301e-11
-1.9864712e-11
-1.9798983e-11
-1.976615e-11
-1.9710294e-11
-1.9636914e-11
-1.9581679e-11
-1.9520963e-11
-1.9436818e-11
-1.9360781e-11
-1.9271438e-11
-1.9210119e-11
-1.9117736e-11
-1.9013156e-11
-1.8906726e-11
-1.8779286e-11
-1.8634551e-11
-1.8530467e-11
-1.8410416e-11
-1.827091e-11
-1.8115664e-11
-1.7962649e-11
-1.7843668e-11
-1.7686814e-11
-1.7494991e-11
-1.7328841e-11
-1.7139878e-11
-1.6922116e-11
-1.6686565e-11
-1.6438219e-11
-1.6204864e-11
-1.5949919e-11
-1.5669357e-11
-1.5364125e-11
-1.5020399e-11
-1.4656226e-11
-1.4253476e-11
-1.3824578e-11
-1.3362688e-11
-1.2861964e-11
-1.2322399e-11
-1.1738882e-11
-1.1108621e-11
-1.0418927e-11
-9.7230057e-12
-9.0561996e-12
-8.5125695e-12
-9.5225588e-12
-9.6307324e-12
-9.9113724e-12
-1.0349507e-11
-1.0871882e-11
-1.1392762e-11
-1.1922162e-11
-1.2396912e-11
-1.2860551e-11
-1.3280538e-11
-1.3678181e-11
-1.4046015e-11
-1.4373759e-11
-1.4684563e-11
-1.4985875e-11
-1.5259312e-11
-1.5534076e-11
-1.5765729e-11
-1.5960359e-11
-1.6174781e-11
-1.6355668e-11
-1.6513298e-11
-1.6714891e-11
-1.6844039e-11
-1.6989065e-11
-1.7155657e-11
-1.7299353e-11
-1.7446572e-11
-1.7537248e-11
-1.7641905e-11
-1.7770523e-11
-1.7888612e-11
-1.8002086e-11
-1.8082878e-11
-1.8182426e-11
-1.8270305e-11
-1.8384178e-11
-1.8494254e-11
-1.857707e-11
-1.8672265e-11
-1.8754907e-11
-1.8842772e-11
-1.8921408e-11
-1.9001903e-11
-1.9102219e-11
-1.9181789e-11
-1.9271286e-11
-1.9344786e-11
-1.9413258e-11
-1.9495732e-11
-1.9578969e-11
-1.9633946e-11
-1.9674182e-11
-1.9761722e-11
-1.9805764e-11
-1.986052e-11
-1.9942576e-11
-2.0033163e-11
-2.0097998e-11
-2.013451e-11
-2.0208528e-11
-2.0276933e-11
-2.0326825e-11
-2.0379745e-11
-2.0447549e-11
-2.051307e-11
-2.0539112e-11
-2.0595823e-11
-2.0648523e-11
-2.069654e-11
-2.0758487e-11
-2.0817346e-11
-2.0852173e-11
-2.0878933e-11
-2.0905593e-11
-2.0917163e-11
-2.0978632e-11
-2.1037886e-11
-2.1063105e-11
-2.1109204e-11
-2.1160899e-11
-2.1204423e-11
-2.1279309e-11
-2.1336751e-11
-2.1365984e-11
-2.1408682e-11
-2.1429959e-11
-2.145123e-11
-2.1478219e-11
-2.1501936e-11
-2.1519344e-11
-2.151405e-11
-2.1563443e-11
-2.1612479e-11
-2.1657112e-11
-2.1683692e-11
-2.1666185e-11
-2.172083e-11
-2.1758587e-11
-2.1806365e-11
-2.1832008e-11
-2.1886941e-11
-2.190117e-11
-2.1914838e-11
-2.1908823e-11
-2.1956672e-11
-2.1985672e-11
-2.1992053e-11
-2.1978831e-11
-2.2000896e-11
-2.2015021e-11
-2.1998514e-11
-2.2025402e-11
-2.2044945e-11
-2.2069332e-11
-2.20829e-11
-2.2097932e-11
-2.210552e-11
-2.2096143e-11
-2.2112467e-11
-2.2108188e-11
-2.2118103e-11
-2.2130748e-11
-2.2101549e-11
-2.208853e-11
-2.2096457e-11
-2.2086492e-11
-2.2097645e-11
-2.2068732e-11
-2.2059586e-11
-2.2053794e-11
-2.2020238e-11
-2.1986877e-11
-2.1990663e-11
-2.1967163e-11
-2.1972453e-11
-2.1969153e-11
-2.1932607e-11
-2.1917016e-11
-2.1902031e-11
-2.1898424e-11
-2.1906604e-11
-2.1881515e-11
-2.1887691e-11
-2.1892194e-11
-2.1862791e-11
-2.183801e-11
-2.1841473e-11
-2.1836971e-11
-2.1823919e-11
-2.1792039e-11
-2.1760898e-11
-2.1740246e-11
-2.1743963e-11
-2.1723123e-11
-2.1702888e-11
-2.1683987e-11
-2.1654024e-11
-2.1620769e-11
-2.1612021e-11
-2.1606866e-11
-2.1593236e-11
-2.1589147e-11
-2.1581744e-11
-2.1574105e-11
-2.1570993e-11
-2.159208e-11
-2.158437e-11
-2.1569786e-11
-2.1515181e-11
-2.1515404e-11
-2.1529309e-11
-2.1499351e-11
-2.148935e-11
-2.1492201e-11
-2.1486021e-11
-2.1462712e-11
-2.1491585e-11
-2.1485793e-11
-2.1509143e-11
-2.1502437e-11
-2.1484869e-11
-2.1479228e-11
-2.1485974e-11
-2.1485768e-11
-2.1490332e-11
-2.1493947e-11
-2.1468944e-11
-2.1462179e-11
-2.1480107e-11
-2.1475612e-11
-2.1489744e-11
-2.1479845e-11
-2.1478921e-11
-2.1481537e-11
-2.1487951e-11
-2.1484224e-11
-2.1485819e-11
-2.1472064e-11
-2.1444888e-11
-2.145482e-11
-2.1425089e-11
-2.1437197e-11
-2.1431732e-11
-2.1429654e-11
-2.1416702e-11
-2.1392866e-11
-2.1363794e-11
-2.1334238e-11
-2.1331842e-11
-2.1326878e-11
-2.1320778e-11
-2.1302793e-11
-2.1273054e-11
-2.1234821e-11
-2.1221687e-11
-2.1197232e-11
-2.1155368e-11
-2.1111937e-11
-2.1073652e-11
-2.1035727e-11
-2.0995997e-11
-2.095278e-11
-2.0922733e-11
-2.0898032e-11
-2.0892011e-11
-2.0861266e-11
-2.0836877e-11
-2.0810784e-11
-2.0793556e-11
-2.0730058e-11
-2.0681452e-11
-2.0648846e-11
-2.0633637e-11
-2.0624493e-11
-2.0557694e-11
-2.0542522e-11
-2.0516956e-11
-2.0480469e-11
-2.0431286e-11
-2.0415159e-11
-2.038364e-11
-2.0363531e-11
-2.0310954e-11
-2.0295946e-11
-2.0246424e-11
-2.0192651e-11
-2.0169179e-11
-2.0139813e-11
-2.0095103e-11
-2.0053975e-11
-2.0035539e-11
-1.9973549e-11
-1.9920655e-11
-1.9863704e-11
-1.9809962e-11
-1.9788127e-11
-1.973133e-11
-1.9645176e-11
-1.9595643e-11
-1.9516897e-11
-1.9457062e-11
-1.9397729e-11
-1.9293683e-11
-1.9222397e-11
-1.9147239e-11
-1.9039435e-11
-1.8918619e-11
-1.8806642e-11
-1.8652113e-11
-1.8557314e-11
-1.8433283e-11
-1.8267971e-11
-1.8135474e-11
-1.8011847e-11
-1.7855015e-11
-1.7725739e-11
-1.7562177e-11
-1.7378503e-11
-1.7171741e-11
-1.6957924e-11
-1.6751215e-11
-1.6484527e-11
-1.6264321e-11
-1.6045381e-11
-1.5746838e-11
-1.5460207e-11
-1.5128554e-11
-1.4783109e-11
-1.440301e-11
-1.4018799e-11
-1.3561441e-11
-1.3118103e-11
-1.2623789e-11
-1.2086308e-11
-1.1593087e-11
-1.1032067e-11
-1.048281e-11
-1.0031998e-11
-9.6721024e-12
-1.0509688e-11
-1.0569788e-11
-1.0744856e-11
-1.1061007e-11
-1.1435896e-11
-1.1883671e-11
-1.2330798e-11
-1.2745579e-11
-1.3139963e-11
-1.3512033e-11
-1.3864283e-11
-1.4203173e-11
-1.4528197e-11
-1.4829908e-11
-1.5087222e-11
-1.5357121e-11
-1.5597454e-11
-1.5832875e-11
-1.6030762e-11
-1.6232217e-11
-1.6408184e-11
-1.6596732e-11
-1.6771414e-11
-1.687094e-11
-1.702945e-11
-1.7197083e-11
-1.7326912e-11
-1.7449092e-11
-1.7568885e-11
-1.7675227e-11
-1.7790551e-11
-1.7909849e-11
-1.8014555e-11
-1.8111286e-11
-1.8191623e-11
-1.8300022e-11
-1.8405984e-11
-1.8517545e-11
-1.8605099e-11
-1.8689077e-11
-1.8769943e-11
-1.8863386e-11
-1.8949163e-11
-1.9030061e-11
-1.9116155e-11
-1.9177793e-11
-1.9287384e-11
-1.9366463e-11
-1.9418139e-11
-1.9504814e-11
-1.9572199e-11
-1.9651639e-11
-1.9708924e-11
-1.9772795e-11
-1.9810957e-11
-1.9863507e-11
-1.9958103e-11
-2.0031971e-11
-2.0100715e-11
-2.0158954e-11
-2.02127e-11
-2.0287459e-11
-2.0338469e-11
-2.0394258e-11
-2.0430742e-11
-2.0488913e-11
-2.0535462e-11
-2.0588819e-11
-2.0646371e-11
-2.0711509e-11
-2.0765705e-11
-2.0824747e-11
-2.0849062e-11
-2.0873458e-11
-2.0918801e-11
-2.0932417e-11
-2.0994472e-11
-2.1044046e-11
-2.1067774e-11
-2.111633e-11
-2.1172812e-11
-2.1211368e-11
-2.1287214e-11
-2.1345722e-11
-2.1358715e-11
-2.1394331e-11
-2.1417375e-11
-2.1454069e-11
-2.1475492e-11
-2.1491131e-11
-2.1520221e-11
-2.1549003e-11
-2.1569187e-11
-2.159799e-11
-2.164958e-11
-2.1673642e-11
-2.1706045e-11
-2.1737215e-11
-2.177506e-11
-2.1804548e-11
-2.1854223e-11
-2.1904136e-11
-2.1917742e-11
-2.1929757e-11
-2.1938325e-11
-2.1972754e-11
-2.1984513e-11
-2.2004411e-11
-2.1991694e-11
-2.1994101e-11
-2.2018129e-11
-2.2023184e-11
-2.2025416e-11
-2.2070661e-11
-2.2084299e-11
-2.210957e-11
-2.2122258e-11
-2.2124542e-11
-2.208764e-11
-2.2102726e-11
-2.2100071e-11
-2.2120346e-11
-2.2142833e-11
-2.2114763e-11
-2.2090296e-11
-2.2105459e-11
-2.208836e-11
-2.2091015e-11
-2.2081828e-11
-2.206547e-11
-2.2063291e-11
-2.2044588e-11
-2.1993757e-11
-2.1986347e-11
-2.1981488e-11
-2.1993724e-11
-2.1968015e-11
-2.1942917e-11
-2.1922648e-11
-2.1921404e-11
-2.192444e-11
-2.1886954e-11
-2.1880031e-11
-2.1875599e-11
-2.1882617e-11
-2.1880256e-11
-2.186806e-11
-2.1863684e-11
-2.1831575e-11
-2.1808175e-11
-2.179381e-11
-2.1751882e-11
-2.1727904e-11
-2.1738657e-11
-2.1726437e-11
-2.1705986e-11
-2.1680665e-11
-2.1655383e-11
-2.1631244e-11
-2.1588481e-11
-2.158657e-11
-2.1593336e-11
-2.1586796e-11
-2.1580214e-11
-2.156529e-11
-2.1579558e-11
-2.1601448e-11
-2.1584294e-11
-2.1577053e-11
-2.1522953e-11
-2.15233e-11
-2.1520061e-11
-2.1501158e-11
-2.1493301e-11
-2.1492213e-11
-2.1494171e-11
-2.14847e-11
-2.1501984e-11
-2.1491968e-11
-2.1484017e-11
-2.1491558e-11
-2.149885e-11
-2.1495296e-11
-2.1491592e-11
-2.1480664e-11
-2.149173e-11
-2.1482601e-11
-2.1469845e-11
-2.1455723e-11
-2.1478304e-11
-2.1481327e-11
-2.1492915e-11
-2.1496081e-11
-2.1500829e-11
-2.1488136e-11
-2.1487069e-11
-2.1484075e-11
-2.1493692e-11
-2.1482066e-11
-2.143778e-11
-2.1460739e-11
-2.1456788e-11
-2.1457659e-11
-2.1443226e-11
-2.1444322e-11
-2.1404661e-11
-2.1402761e-11
-2.1372115e-11
-2.1353173e-11
-2.1331998e-11
-2.1328781e-11
-2.1310986e-11
-2.1307919e-11
-2.1277514e-11
-2.1250063e-11
-2.1224986e-11
-2.121487e-11
-2.1157692e-11
-2.110198e-11
-2.1067676e-11
-2.1050998e-11
-2.1008484e-11
-2.095666e-11
-2.0918488e-11
-2.089695e-11
-2.088731e-11
-2.086228e-11
-2.0834003e-11
-2.0809953e-11
-2.0799783e-11
-2.0722582e-11
-2.0689755e-11
-2.0652714e-11
-2.0620154e-11
-2.0606384e-11
-2.0545205e-11
-2.0521662e-11
-2.0516487e-11
-2.0486868e-11
-2.0455793e-11
-2.0417191e-11
-2.038628e-11
-2.0353106e-11
-2.0322006e-11
-2.0291157e-11
-2.0249299e-11
-2.0230002e-11
-2.0193197e-11
-2.0138428e-11
-2.0078432e-11
-2.0060165e-11
-2.0025234e-11
-1.9967664e-11
-1.9915832e-11
-1.9860217e-11
-1.9829982e-11
-1.9795497e-11
-1.9744245e-11
-1.9660537e-11
-1.9632797e-11
-1.9550408e-11
-1.9474959e-11
-1.940999e-11
-1.9334873e-11
-1.9273341e-11
-1.9167488e-11
-1.9071457e-11
-1.8930904e-11
-1.8819562e-11
-1.8688399e-11
-1.8603446e-11
-1.8463047e-11
-1.8283697e-11
-1.8164736e-11
-1.8038251e-11
-1.789254e-11
-1.7759193e-11
-1.759296e-11
-1.7421008e-11
-1.7222635e-11
-1.7015414e-11
-1.6792179e-11
-1.6572027e-11
-1.6350946e-11
-1.6144067e-11
-1.5877645e-11
-1.5561605e-11
-1.5257577e-11
-1.4920957e-11
-1.455739e-11
-1.4199992e-11
-1.3811032e-11
-1.3378465e-11
-1.2947118e-11
-1.2505527e-11
-1.2067892e-11
-1.1635148e-11
-1.1207244e-11
-1.0865818e-11
-1.0627141e-11
-1.1324116e-11
-1.1342113e-11
-1.1480985e-11
-1.1694399e-11
-1.2003648e-11
-1.2373312e-11
-1.2732418e-11
-1.3075481e-11
-1.3434382e-11
-1.3766826e-11
-1.4090077e-11
-1.440055e-11
-1.4697974e-11
-1.4964819e-11
-1.5235934e-11
-1.5456323e-11
-1.5700846e-11
-1.5926355e-11
-1.6119387e-11
-1.6312708e-11
-1.6484712e-11
-1.6650737e-11
-1.6787006e-11
-1.6931052e-11
-1.7077976e-11
-1.7226608e-11
-1.7337495e-11
-1.7470365e-11
-1.758565e-11
-1.7695189e-11
-1.7816413e-11
-1.7932686e-11
-1.8042693e-11
-1.8124462e-11
-1.82236e-11
-1.834482e-11
-1.8433346e-11
-1.8538304e-11
-1.8645242e-11
-1.8720028e-11
-1.8797026e-11
-1.8879412e-11
-1.8950833e-11
-1.9060066e-11
-1.9127251e-11
-1.919797e-11
-1.9303781e-11
-1.9372365e-11
-1.9442638e-11
-1.9498246e-11
-1.9559984e-11
-1.9655967e-11
-1.9719229e-11
-1.9769686e-11
-1.9818142e-11
-1.9898696e-11
-1.9962392e-11
-2.0052255e-11
-2.0120281e-11
-2.0152512e-11
-2.0231166e-11
-2.0286555e-11
-2.0350169e-11
-2.0383943e-11
-2.0426939e-11
-2.0481071e-11
-2.0550562e-11
-2.0616902e-11
-2.0657312e-11
-2.0697497e-11
-2.0758823e-11
-2.0805032e-11
-2.0834746e-11
-2.0856712e-11
-2.09226e-11
-2.0932587e-11
-2.0991656e-11
-2.1044515e-11
-2.1077923e-11
-2.1149149e-11
-2.1191413e-11
-2.1214675e-11
-2.1277708e-11
-2.1324515e-11
-2.136405e-11
-2.1387114e-11
-2.144557e-11
-2.1450288e-11
-2.1455579e-11
-2.150847e-11
-2.1519463e-11
-2.1548429e-11
-2.1577382e-11
-2.1627056e-11
-2.1641696e-11
-2.1658584e-11
-2.171361e-11
-2.1738484e-11
-2.1778473e-11
-2.1823233e-11
-2.1851011e-11
-2.1877423e-11
-2.1895178e-11
-2.1933499e-11
-2.1961274e-11
-2.1976285e-11
-2.199224e-11
-2.2010425e-11
-2.2015959e-11
-2.2017205e-11
-2.2022058e-11
-2.2043458e-11
-2.2050987e-11
-2.2079219e-11
-2.2109854e-11
-2.2117605e-11
-2.2113056e-11
-2.2132674e-11
-2.210277e-11
-2.2126884e-11
-2.2116794e-11
-2.2130596e-11
-2.2153735e-11
-2.213353e-11
-2.2099823e-11
-2.2083713e-11
-2.2112252e-11
-2.209103e-11
-2.2091753e-11
-2.2075856e-11
-2.2077095e-11
-2.2040465e-11
-2.2017387e-11
-2.2000706e-11
-2.2006845e-11
-2.1999972e-11
-2.1986901e-11
-2.1947457e-11
-2.1930677e-11
-2.1955307e-11
-2.1949478e-11
-2.1901368e-11
-2.1877524e-11
-2.1852444e-11
-2.186248e-11
-2.1892451e-11
-2.1888895e-11
-2.1877014e-11
-2.1831172e-11
-2.1804499e-11
-2.1788469e-11
-2.1758034e-11
-2.1752564e-11
-2.1718239e-11