/*--------------------------------*- C++ -*----------------------------------*\
| =========                 |                                                 |
| \\      /  F ield         | OpenFOAM: The Open Source CFD Toolbox           |
|  \\    /   O peration     | Version:  2406                                  |
|   \\  /    A nd           | Website:  www.openfoam.com                      |
|    \\/     M anipulation  |                                                 |
\*---------------------------------------------------------------------------*/
FoamFile
{
    version     2.0;
    format      ascii;
    arch        "LSB;label=32;scalar=64";
    class       surfaceScalarField;
    location    "13";
    object      phi;
}
// * * * * * * * * * * * * * * * * * * * * * * * * * * * * * * * * * * * * * //

dimensions      [0 3 -1 0 0 0 0];

oriented        oriented;

internalField   nonuniform List<scalar> 
59600
(
0.00024966411
-7.6038342e-18
0.00024966411
-3.7395752e-18
0.00024966411
-6.0803506e-19
0.00024966411
-2.3029143e-19
0.00024966411
-2.173304e-20
0.00024966411
1.3013942e-19
0.00024966411
1.4785041e-19
0.00024966411
2.4882904e-19
0.00024966411
2.0580128e-19
0.00024966411
1.5691803e-19
0.00024966411
7.6527212e-20
0.00024966411
4.4115227e-20
0.00024966411
1.4338011e-19
0.00024966411
1.2679496e-19
0.00024966411
-7.5701132e-22
0.00024966411
-6.4179744e-20
0.00024966411
-1.2073862e-19
0.00024966411
-1.5402988e-19
0.00024966411
-5.0140871e-20
0.00024966411
1.8773959e-20
0.00024966411
-2.2412456e-20
0.00024966411
-1.128718e-19
0.00024966411
4.6218305e-20
0.00024966411
4.2210352e-20
0.00024966411
7.6413109e-21
0.00024966411
3.6991113e-20
0.00024966411
-8.985481e-20
0.00024966411
-8.4844625e-20
0.00024966411
-1.5232137e-19
0.00024966411
-2.512722e-20
0.00024966411
1.2283172e-19
0.00024966411
-4.7403534e-20
0.00024966411
1.11514e-19
0.00024966411
2.2723335e-19
0.00024966411
-8.0038305e-20
0.00024966411
-1.2719995e-20
0.00024966411
1.2214821e-20
0.00024966411
-1.4698442e-20
0.00024966411
3.2462665e-20
0.00024966411
1.0198492e-20
0.00024966411
1.3666958e-19
0.00024966411
-1.3491582e-19
0.00024966411
7.9852769e-21
0.00024966411
7.0371243e-20
0.00024966411
-2.0124767e-19
0.00024966411
9.8943553e-20
0.00024966411
7.9894119e-20
0.00024966411
-2.4464712e-19
0.00024966411
-1.1163449e-19
0.00024966411
1.4363719e-19
0.00024966411
-3.9343139e-20
0.00024966411
-1.5960264e-19
0.00024966411
-4.4102652e-19
0.00024966411
-3.1843978e-19
0.00024966411
6.2921766e-20
0.00024966411
-1.3282914e-19
0.00024966411
1.4008561e-19
0.00024966411
-8.7658385e-20
0.00024966411
-1.3448229e-19
0.00024966411
2.108569e-19
0.00024966411
1.6529144e-19
0.00024966411
-7.1703926e-20
0.00024966411
1.2924005e-19
0.00024966411
1.8482526e-19
0.00024966411
-8.5137672e-20
0.00024966411
1.8744229e-19
0.00024966411
-1.2195406e-19
0.00024966411
-1.646066e-19
0.00024966411
2.693052e-19
0.00024966411
-1.6381347e-19
0.00024966411
-9.3585102e-20
0.00024966411
2.0037881e-19
0.00024966411
4.3955229e-19
0.00024966411
-9.8309109e-20
0.00024966411
-2.2773243e-19
0.00024966411
4.5651015e-19
0.00024966411
1.1968918e-19
0.00024966411
-3.1564973e-19
0.00024966411
4.2328015e-20
0.00024966411
2.5297697e-19
0.00024966411
1.3277743e-19
0.00024966411
6.4579889e-20
0.00024966411
3.1749241e-19
0.00024966411
7.7038749e-20
0.00024966411
-2.839369e-19
0.00024966411
4.2782341e-19
0.00024966411
2.293861e-19
0.00024966411
-1.2694804e-19
0.00024966411
1.8360876e-19
0.00024966411
4.5929844e-20
0.00024966411
4.8185065e-20
0.00024966411
2.7779114e-19
0.00024966411
1.2585081e-19
0.00024966411
3.9359523e-20
0.00024966411
1.726606e-20
0.00024966411
-4.8773694e-19
0.00024966411
-8.3675318e-21
0.00024966411
3.291054e-19
0.00024966411
-2.9018098e-19
0.00024966411
-2.9234086e-19
0.00024966411
6.1685415e-21
0.00024966411
1.0222138e-19
0.00024966411
-1.5578899e-19
0.00024966411
-5.3767083e-20
0.00024966411
1.8481911e-19
0.00024966411
-3.7694376e-19
0.00024966411
-1.7017839e-19
0.00024966411
5.9932138e-20
0.00024966411
4.3256593e-20
0.00024966411
4.5834996e-19
0.00024966411
-1.4477105e-19
0.00024966411
-5.1528835e-19
0.00024966411
-3.3289506e-21
0.00024966411
5.1936505e-19
0.00024966411
3.5338049e-19
0.00024966411
-4.0374549e-19
0.00024966411
-5.0070391e-19
0.00024966411
3.1665087e-19
0.00024966411
4.4319972e-19
0.00024966411
2.130413e-20
0.00024966411
-8.0400873e-20
0.00024966411
3.4134387e-20
0.00024966411
4.6154589e-19
0.00024966411
2.5119342e-20
0.00024966411
-4.9550412e-19
0.00024966411
2.5292607e-19
0.00024966411
6.0642665e-20
0.00024966411
-3.044402e-19
0.00024966411
3.0261312e-20
0.00024966411
8.859186e-20
0.00024966411
-2.0597895e-19
0.00024966411
-2.9489661e-20
0.00024966411
5.4671608e-19
0.00024966411
-3.8097057e-19
0.00024966411
-4.6870843e-19
0.00024966411
1.9218859e-19
0.00024966411
1.3824204e-19
0.00024966411
-3.1543824e-19
0.00024966411
2.886649e-19
0.00024966411
3.1897099e-19
0.00024966411
-6.2727544e-19
0.00024966411
-2.9430573e-19
0.00024966411
1.8986078e-19
0.00024966411
5.1594039e-19
0.00024966411
-7.2351112e-20
0.00024966411
-1.1104389e-19
0.00024966411
6.2112974e-19
0.00024966411
-2.5283589e-19
0.00024966411
-5.8569851e-19
0.00024966411
4.0088679e-19
0.00024966411
-3.2463964e-19
0.00024966411
-2.4777436e-19
0.00024966411
9.2876968e-19
0.00024966411
-4.4120474e-19
0.00024966411
-2.7968538e-19
0.00024966411
3.590872e-19
0.00024966411
-5.1667729e-19
0.00024966411
-9.6030634e-20
0.00024966411
1.6750581e-19
0.00024966411
2.0015796e-19
0.00024966411
-1.380933e-19
0.00024966411
-3.2785524e-19
0.00024966411
-1.5899655e-19
0.00024966411
1.5115054e-19
0.00024966411
2.3981131e-20
0.00024966411
-6.4759864e-21
0.00024966411
3.3460105e-19
0.00024966411
-7.4894218e-19
0.00024966411
6.1716593e-19
0.00024966411
6.0801384e-19
0.00024966411
-9.1108697e-19
0.00024966411
4.2099286e-19
0.00024966411
6.2278475e-19
0.00024966411
-7.9023116e-19
0.00024966411
-2.4866669e-19
0.00024966411
-1.4288336e-20
0.00024966411
1.2977826e-19
0.00024966411
-3.6820969e-20
0.00024966411
-2.2379747e-19
0.00024966411
3.3918264e-19
0.00024966411
-1.3256737e-19
0.00024966411
-1.9138145e-19
0.00024966411
-1.1093669e-19
0.00024966411
-3.0106267e-19
0.00024966411
7.560733e-19
0.00024966411
1.7190344e-19
0.00024966411
-4.8106332e-19
0.00024966411
3.4824774e-19
0.00024966411
6.8906282e-20
0.00024966411
-6.0476461e-20
0.00024966411
-1.6830493e-19
0.00024966411
-3.069783e-19
0.00024966411
-3.8115699e-19
0.00024966411
6.1877133e-19
0.00024966411
6.6542858e-19
0.00024966411
3.9987363e-20
0.00024966411
4.1106059e-19
0.00024966411
2.0422206e-19
0.00024966411
-8.5669049e-19
0.00024966411
-5.5976371e-19
0.00024966411
3.1160337e-19
0.00024966411
-4.9594531e-19
0.00024966411
6.1266975e-19
0.00024966411
5.431333e-19
0.00024966411
2.266514e-19
0.00024966411
1.0466134e-19
0.00024966411
-5.4556934e-19
0.00024966411
-2.7951843e-19
0.00024966411
-2.0185853e-20
0.00024966411
-2.0092369e-19
0.00024966411
4.388729e-19
0.00024966411
6.3815935e-20
0.00024966411
-4.2294198e-19
0.00024966411
7.6322615e-19
0.00024966411
-3.5270655e-19
0.00024966411
-3.7536199e-19
0.00024966411
-1.3770735e-19
0.00024966411
5.4925298e-20
0.00024966411
6.1650425e-19
0.00024966411
8.6559307e-19
0.00024966411
-1.8704121e-19
0.00024966411
-8.3137029e-19
0.00024966411
-4.3134202e-19
0.00024966411
-6.5688215e-19
0.00024966411
5.3750249e-21
0.00024966411
1.9705566e-20
0.00024966411
2.9375157e-19
0.00024966411
6.840524e-19
0.00024966411
5.2932134e-19
0.00024966411
2.8105188e-20
0.00024966411
-4.2110566e-19
0.00024966411
-9.0857744e-19
0.00024966411
2.4298903e-19
0.00024966411
1.6768693e-19
0.00024966411
-4.165651e-19
0.00024966411
6.5158083e-19
0.00024966411
3.2097192e-19
0.00024966411
4.3899935e-19
0.00024966411
-4.5781525e-19
0.00024966411
1.2716876e-19
0.00024966411
-1.9903833e-19
0.00024966411
-8.5637589e-19
0.00024966411
3.6033866e-19
0.00024966411
8.8184652e-19
0.00024966411
-3.1299565e-19
0.00024966411
-3.1774197e-19
0.00024966411
5.6486117e-19
0.00024966411
-3.3262855e-19
0.00024966411
-8.5295464e-20
0.00024966411
-4.0950643e-19
0.00024966411
1.6449687e-20
0.00024966411
2.7421613e-19
0.00024966411
1.0086842e-18
0.00024966411
-3.6683622e-19
0.00024966411
-6.1233084e-19
0.00024966411
7.2512575e-19
0.00024966411
-3.1144511e-19
0.00024966411
-6.6583918e-19
0.00024966411
3.0570216e-19
0.00024966411
-4.0416902e-20
0.00024966411
3.3321904e-19
0.00024966411
1.0018399e-18
0.00024966411
-9.8798715e-19
0.00024966411
3.9109911e-19
0.00024966411
-4.4730694e-19
0.00024966411
-2.9606357e-19
0.00024966411
1.0610206e-18
0.00024966411
-1.1697498e-18
0.00024966411
-5.5359917e-20
0.00024966411
2.3567268e-18
0.00024966411
-9.2842075e-19
0.00024966411
-9.7455507e-19
0.00024966411
3.1227232e-19
0.00024966411
-5.557794e-19
0.00024966411
1.0452808e-18
0.00024966411
-1.110538e-18
0.00024966411
1.9855065e-20
0.00024966411
1.5726686e-18
0.00024966411
7.0691487e-19
0.00024966411
-7.5229804e-19
0.00024966411
-6.5682069e-19
0.00024966411
-2.7382562e-19
0.00024966411
5.5038464e-20
0.00024966411
3.2684531e-19
0.00024966411
-7.8201509e-19
0.00024966411
1.1875078e-18
0.00024966411
-1.8871811e-19
0.00024966411
-8.3337538e-19
0.00024966411
7.483281e-19
0.00024966411
5.5725874e-19
0.00024966411
-7.9380953e-19
0.00024966411
3.1679295e-20
0.00024966411
-6.0531307e-20
0.00024966411
-2.5479025e-19
0.00024966411
2.1829259e-18
0.00024966411
9.7836833e-19
0.00024966411
-1.7741578e-18
0.00024966411
1.8162967e-19
0.00024966411
-3.835449e-19
-4.5025706e-18
0.00073899265
-4.732946e-18
0.00073899265
-3.9887605e-18
0.00073899265
-2.0736038e-18
0.00073899265
-9.746976e-19
0.00073899265
-3.2320873e-19
0.00073899265
1.4572684e-19
0.00073899265
2.635514e-19
0.00073899265
4.3694168e-19
0.00073899265
4.2051135e-19
0.00073899265
1.2364981e-21
0.00073899265
1.0320636e-19
0.00073899265
1.0600209e-19
0.00073899265
-2.3768528e-20
0.00073899265
4.4110886e-20
0.00073899265
-2.7736194e-19
0.00073899265
-3.1274905e-19
0.00073899265
-4.2906509e-19
0.00073899265
-4.3111722e-19
0.00073899265
-5.6386943e-19
0.00073899265
-2.7596889e-19
0.00073899265
-2.0443872e-19
0.00073899265
-4.2198179e-19
0.00073899265
-5.24535e-20
0.00073899265
3.7246397e-20
0.00073899265
1.5578165e-19
0.00073899265
5.6265077e-20
0.00073899265
-2.8223506e-19
0.00073899265
-3.824879e-19
0.00073899265
-3.1301234e-19
0.00073899265
-2.6825634e-19
0.00073899265
-6.7653702e-20
0.00073899265
2.5367745e-19
0.00073899265
1.3642808e-19
0.00073899265
6.5650401e-20
0.00073899265
-1.2208383e-19
0.00073899265
1.4627078e-19
0.00073899265
-8.3534783e-20
0.00073899265
6.085584e-20
0.00073899265
2.0558852e-19
0.00073899265
-3.7517642e-20
0.00073899265
1.5922703e-19
0.00073899265
-1.7791239e-20
0.00073899265
-1.2260827e-19
0.00073899265
2.0301951e-19
0.00073899265
-1.5034887e-19
0.00073899265
-1.1721784e-19
0.00073899265
1.1311765e-19
0.00073899265
-4.3085735e-19
0.00073899265
-2.862204e-19
0.00073899265
1.7303797e-19
0.00073899265
-2.973316e-19
0.00073899265
-6.0071728e-19
0.00073899265
-1.0469895e-18
0.00073899265
-7.3985981e-19
0.00073899265
-1.7544109e-19
0.00073899265
-2.7293893e-19
0.00073899265
3.4487868e-19
0.00073899265
-6.5883081e-20
0.00073899265
-1.7787563e-19
0.00073899265
4.142182e-19
0.00073899265
1.9981325e-19
0.00073899265
1.9148621e-19
0.00073899265
2.2660776e-19
0.00073899265
7.353795e-19
0.00073899265
2.8297624e-19
0.00073899265
1.2786495e-19
0.00073899265
-3.8424635e-19
0.00073899265
-2.6877354e-19
0.00073899265
2.9323252e-19
0.00073899265
-5.5911788e-20
0.00073899265
7.524323e-20
0.00073899265
4.1820417e-19
0.00073899265
8.237881e-19
0.00073899265
2.9874464e-19
0.00073899265
-1.8334585e-19
0.00073899265
9.1573704e-19
0.00073899265
2.9959644e-19
0.00073899265
-5.2412398e-19
0.00073899265
6.0634228e-20
0.00073899265
5.636241e-19
0.00073899265
5.751262e-19
0.00073899265
7.2141367e-19
0.00073899265
8.5205919e-19
0.00073899265
2.6312402e-19
0.00073899265
6.334783e-20
0.00073899265
7.0597847e-19
0.00073899265
1.4565416e-19
0.00073899265
3.2255932e-19
0.00073899265
4.3930736e-19
0.00073899265
2.6737158e-19
0.00073899265
3.8327304e-19
0.00073899265
5.3569138e-19
0.00073899265
5.6582268e-19
0.00073899265
5.3777762e-19
0.00073899265
2.0964675e-19
0.00073899265
-1.1112535e-18
0.00073899265
-4.0279927e-19
0.00073899265
5.8672188e-19
0.00073899265
-5.9351084e-19
0.00073899265
-9.3104127e-19
0.00073899265
2.3249695e-19
0.00073899265
2.3412004e-19
0.00073899265
-3.0278509e-19
0.00073899265
-1.6936658e-19
0.00073899265
2.0127428e-21
0.00073899265
-3.6889767e-19
0.00073899265
-4.490802e-19
0.00073899265
-3.8814918e-19
0.00073899265
3.3760311e-19
0.00073899265
7.2643035e-19
0.00073899265
-1.9628494e-19
0.00073899265
-7.4691564e-19
0.00073899265
-1.5918247e-19
0.00073899265
1.0917412e-18
0.00073899265
6.047247e-19
0.00073899265
-1.100355e-18
0.00073899265
-6.6496605e-19
0.00073899265
6.3209539e-19
0.00073899265
7.7664483e-19
0.00073899265
1.843605e-19
0.00073899265
-9.273021e-20
0.00073899265
3.5917919e-19
0.00073899265
8.5976413e-19
0.00073899265
7.1191375e-20
0.00073899265
-4.1409301e-19
0.00073899265
1.3485728e-19
0.00073899265
-2.6714382e-19
0.00073899265
-2.9591263e-19
0.00073899265
1.5371958e-19
0.00073899265
-2.6908847e-19
0.00073899265
-7.9779388e-20
0.00073899265
-1.1740762e-19
0.00073899265
6.8652915e-19
0.00073899265
-5.3410956e-19
0.00073899265
-7.3799196e-19
0.00073899265
1.9175301e-19
0.00073899265
-3.9075678e-19
0.00073899265
-6.521405e-19
0.00073899265
5.4026959e-19
0.00073899265
7.1928946e-19
0.00073899265
-9.2386985e-19
0.00073899265
-9.2470737e-19
0.00073899265
7.4735988e-19
0.00073899265
1.2094223e-18
0.00073899265
-4.4361715e-19
0.00073899265
-2.373726e-19
0.00073899265
1.3468477e-18
0.00073899265
-1.477385e-19
0.00073899265
-1.2584324e-18
0.00073899265
2.3804195e-19
0.00073899265
-6.2848462e-19
0.00073899265
4.3760704e-20
0.00073899265
1.1833992e-18
0.00073899265
-5.9124757e-19
0.00073899265
-3.0816466e-19
0.00073899265
2.6476322e-19
0.00073899265
-7.040528e-19
0.00073899265
-3.442496e-19
0.00073899265
-1.6418379e-19
0.00073899265
6.3643629e-19
0.00073899265
-3.2263101e-19
0.00073899265
-8.3993252e-19
0.00073899265
-3.0030685e-19
0.00073899265
-5.6435439e-20
0.00073899265
-2.6585908e-20
0.00073899265
1.3087368e-19
0.00073899265
2.5617357e-19
0.00073899265
-8.0607996e-19
0.00073899265
6.9200868e-19
0.00073899265
1.1956959e-18
0.00073899265
-3.7873826e-19
0.00073899265
4.8780344e-20
0.00073899265
4.6614808e-19
0.00073899265
-6.7594495e-19
0.00073899265
-1.2354772e-18
0.00073899265
-2.2293876e-19
0.00073899265
5.4226718e-19
0.00073899265
-5.2539566e-19
0.00073899265
-6.0438749e-19
0.00073899265
8.4871339e-19
0.00073899265
-3.881654e-20
0.00073899265
-4.9718363e-19
0.00073899265
-5.2063469e-19
0.00073899265
-4.8457499e-19
0.00073899265
1.3351393e-18
0.00073899265
4.8808749e-19
0.00073899265
-6.0481198e-19
0.00073899265
3.7494207e-19
0.00073899265
5.8966574e-19
0.00073899265
-3.3495526e-20
0.00073899265
-5.4171343e-19
0.00073899265
-7.5071339e-19
0.00073899265
-6.357139e-20
0.00073899265
1.4156041e-18
0.00073899265
9.2804164e-19
0.00073899265
7.4522971e-19
0.00073899265
1.335018e-18
0.00073899265
-3.6268141e-19
0.00073899265
-1.6068291e-18
0.00073899265
-6.4791277e-19
0.00073899265
-5.4083152e-20
0.00073899265
-6.5009336e-19
0.00073899265
1.5395065e-18
0.00073899265
8.7373121e-19
0.00073899265
7.1950025e-19
0.00073899265
1.1906217e-18
0.00073899265
-1.3667643e-18
0.00073899265
-1.4432285e-18
0.00073899265
-1.8378919e-19
0.00073899265
6.4244175e-20
0.00073899265
6.0012489e-19
0.00073899265
3.6657381e-19
0.00073899265
-4.2350203e-19
0.00073899265
6.9273839e-19
0.00073899265
-3.7441194e-19
0.00073899265
-4.0996585e-19
0.00073899265
-7.5575698e-19
0.00073899265
2.191385e-19
0.00073899265
2.0003493e-18
0.00073899265
1.1076173e-18
0.00073899265
-7.8278014e-19
0.00073899265
-1.5318678e-18
0.00073899265
-8.6324033e-19
0.00073899265
-1.6085812e-18
0.00073899265
-5.0165152e-19
0.00073899265
7.8281228e-20
0.00073899265
4.527795e-19
0.00073899265
1.8159304e-18
0.00073899265
1.7860244e-18
0.00073899265
-4.2404027e-19
0.00073899265
-7.2271271e-19
0.00073899265
-1.0536093e-18
0.00073899265
-6.4810668e-19
0.00073899265
4.6382603e-19
0.00073899265
-1.8657184e-19
0.00073899265
1.0645145e-18
0.00073899265
1.1626229e-18
0.00073899265
1.9712594e-19
0.00073899265
-3.1062114e-19
0.00073899265
3.2743633e-19
0.00073899265
-6.2542171e-19
0.00073899265
-1.315558e-18
0.00073899265
1.7348683e-19
0.00073899265
1.5593654e-18
0.00073899265
1.2459836e-19
0.00073899265
-6.7103541e-19
0.00073899265
6.3796671e-19
0.00073899265
-1.8598299e-19
0.00073899265
-3.9890363e-19
0.00073899265
-1.9843321e-19
0.00073899265
5.8300116e-20
0.00073899265
3.3428214e-19
0.00073899265
1.431441e-18
0.00073899265
-2.4234719e-19
0.00073899265
-1.137377e-18
0.00073899265
7.2723667e-19
0.00073899265
2.8246451e-19
0.00073899265
-7.2099539e-19
0.00073899265
4.4583779e-20
0.00073899265
-4.8715297e-19
0.00073899265
8.6966001e-19
0.00073899265
1.8645871e-18
0.00073899265
-4.8508744e-19
0.00073899265
-8.3093072e-20
0.00073899265
-1.2745702e-18
0.00073899265
-1.0142274e-18
0.00073899265
2.3110686e-18
0.00073899265
-1.0454312e-18
0.00073899265
-1.0897422e-19
0.00073899265
3.7420726e-18
0.00073899265
-9.401343e-19
0.00073899265
-2.0064519e-18
0.00073899265
-1.6399216e-19
0.00073899265
-8.5355984e-19
0.00073899265
1.0233197e-18
0.00073899265
-7.1120249e-19
0.00073899265
-9.9787575e-20
0.00073899265
2.2391124e-18
0.00073899265
1.3536185e-18
0.00073899265
-5.7463442e-19
0.00073899265
-1.5151795e-18
0.00073899265
-1.6297408e-18
0.00073899265
8.3438159e-21
0.00073899265
9.4112321e-19
0.00073899265
-1.5561575e-18
0.00073899265
1.2757512e-18
0.00073899265
5.739629e-19
0.00073899265
-1.9501091e-18
0.00073899265
1.2070444e-18
0.00073899265
4.5099362e-19
0.00073899265
-1.5427464e-18
0.00073899265
2.3545745e-19
0.00073899265
-1.1069852e-19
0.00073899265
6.4740603e-20
0.00073899265
3.836162e-18
0.00073899265
8.2950451e-19
0.00073899265
-2.454391e-18
0.00073899265
-4.2502849e-19
0.00073899265
-1.8721082e-18
-4.4070267e-18
0.0012183222
-3.8817446e-18
0.0012183222
-3.50754e-18
0.0012183222
-2.7196086e-18
0.0012183222
-2.0256203e-18
0.0012183222
-8.6271998e-19
0.0012183222
-6.3423095e-20
0.0012183222
3.2110511e-19
0.0012183222
6.636626e-19
0.0012183222
3.7595188e-19
0.0012183222
1.4437002e-19
0.0012183222
-1.6078196e-19
0.0012183222
-1.7341831e-19
0.0012183222
-2.6625139e-19
0.0012183222
-5.8551715e-19
0.0012183222
-5.4008221e-19
0.0012183222
-9.3108664e-19
0.0012183222
-9.874075e-19
0.0012183222
-9.8459254e-19
0.0012183222
-8.917937e-19
0.0012183222
-8.2575832e-19
0.0012183222
-9.7526776e-19
0.0012183222
-6.4803418e-19
0.0012183222
-1.8767825e-19
0.0012183222
-3.2661875e-19
0.0012183222
-2.5353517e-19
0.0012183222
2.353371e-20
0.0012183222
2.1894057e-20
0.0012183222
3.3385566e-20
0.0012183222
-7.6074078e-19
0.0012183222
-7.103251e-19
0.0012183222
-2.6941777e-19
0.0012183222
4.1205189e-20
0.0012183222
3.8765229e-19
0.0012183222
3.0140482e-19
0.0012183222
2.5083487e-19
0.0012183222
-6.1185062e-20
0.0012183222
-3.485585e-19
0.0012183222
2.1359114e-19
0.0012183222
3.653033e-19
0.0012183222
-4.7231761e-20
0.0012183222
1.6008303e-19
0.0012183222
-1.9150777e-19
0.0012183222
-5.0126282e-19
0.0012183222
-5.4096512e-19
0.0012183222
-3.5172049e-19
0.0012183222
2.7013079e-20
0.0012183222
2.2011362e-20
0.0012183222
-5.6525247e-19
0.0012183222
-5.9877531e-19
0.0012183222
-4.2427663e-19
0.0012183222
-6.5573452e-19
0.0012183222
-1.1917947e-18
0.0012183222
-1.628923e-18
0.0012183222
-8.2468131e-19
0.0012183222
-3.4831036e-19
0.0012183222
-3.5165501e-19
0.0012183222
3.4547377e-19
0.0012183222
4.2284401e-20
0.0012183222
-1.5783402e-20
0.0012183222
2.3789899e-19
0.0012183222
2.1514482e-19
0.0012183222
7.0817507e-19
0.0012183222
3.7605553e-19
0.0012183222
6.0447983e-19
0.0012183222
7.646551e-19
0.0012183222
3.987253e-19
0.0012183222
-2.5031341e-19
0.0012183222
-2.9282876e-19
0.0012183222
2.8218331e-19
0.0012183222
3.7184706e-19
0.0012183222
2.9616928e-19
0.0012183222
5.5880954e-19
0.0012183222
1.1227619e-18
0.0012183222
4.5536656e-19
0.0012183222
2.4779526e-19
0.0012183222
1.3783089e-18
0.0012183222
1.105161e-18
0.0012183222
5.1808511e-20
0.0012183222
2.3717144e-19
0.0012183222
9.30015e-19
0.0012183222
1.5379874e-18
0.0012183222
1.0459525e-18
0.0012183222
1.0465771e-18
0.0012183222
5.9516767e-19
0.0012183222
5.0746667e-19
0.0012183222
9.0238262e-19
0.0012183222
5.3864481e-19
0.0012183222
7.0068367e-19
0.0012183222
7.504745e-19
0.0012183222
7.5392166e-19
0.0012183222
1.0358404e-18
0.0012183222
5.950884e-19
0.0012183222
1.0095771e-18
0.0012183222
9.6435607e-19
0.0012183222
2.7871491e-19
0.0012183222
-6.3546604e-19
0.0012183222
-3.6233057e-19
0.0012183222
6.9070107e-19
0.0012183222
-9.2235517e-19
0.0012183222
-1.182059e-18
0.0012183222
2.857613e-19
0.0012183222
5.065809e-19
0.0012183222
-1.8384238e-19
0.0012183222
-9.148988e-19
0.0012183222
-7.6086898e-19
0.0012183222
-4.0958288e-19
0.0012183222
-7.3601932e-19
0.0012183222
-3.7231454e-19
0.0012183222
8.3109333e-19
0.0012183222
1.0701831e-18
0.0012183222
-1.7225978e-19
0.0012183222
-5.4936794e-19
0.0012183222
-1.8246702e-19
0.0012183222
1.1679262e-18
0.0012183222
6.4544908e-19
0.0012183222
-1.0661449e-18
0.0012183222
-4.6370445e-19
0.0012183222
1.0394571e-18
0.0012183222
8.7101131e-19
0.0012183222
1.3494115e-19
0.0012183222
-7.9321981e-20
0.0012183222
5.7810075e-19
0.0012183222
7.0935028e-19
0.0012183222
-1.2087585e-19
0.0012183222
-2.6499953e-19
0.0012183222
3.2217471e-19
0.0012183222
-3.6463634e-19
0.0012183222
-2.2440288e-19
0.0012183222
7.7319433e-21
0.0012183222
-4.9444389e-19
0.0012183222
1.6775303e-19
0.0012183222
8.6871547e-20
0.0012183222
5.2490526e-19
0.0012183222
-3.2683182e-19
0.0012183222
-6.9501616e-19
0.0012183222
9.3523081e-20
0.0012183222
-6.2435028e-19
0.0012183222
-5.0094326e-19
0.0012183222
5.5601544e-19
0.0012183222
5.5005627e-19
0.0012183222
-7.6017334e-19
0.0012183222
-9.3466745e-19
0.0012183222
1.210218e-18
0.0012183222
1.7329328e-18
0.0012183222
-8.7209058e-19
0.0012183222
2.7605537e-20
0.0012183222
2.0249208e-18
0.0012183222
-3.815328e-19
0.0012183222
-1.8586582e-18
0.0012183222
-5.936326e-19
0.0012183222
-7.3345109e-19
0.0012183222
3.4329545e-19
0.0012183222
1.1111355e-18
0.0012183222
-7.0409144e-19
0.0012183222
-4.9623353e-19
0.0012183222
-1.1125345e-19
0.0012183222
-8.6307845e-19
0.0012183222
-8.0390185e-19
0.0012183222
-3.1899576e-19
0.0012183222
9.5818479e-19
0.0012183222
2.2291666e-19
0.0012183222
-8.2972766e-19
0.0012183222
-6.2415591e-19
0.0012183222
-5.6572709e-19
0.0012183222
-2.7732704e-19
0.0012183222
5.6793183e-20
0.0012183222
1.7835127e-19
0.0012183222
-6.2696304e-19
0.0012183222
9.160515e-19
0.0012183222
1.4287363e-18
0.0012183222
-9.9142942e-20
0.0012183222
-1.6262143e-19
0.0012183222
1.1747762e-19
0.0012183222
-6.7805637e-19
0.0012183222
-1.5866293e-18
0.0012183222
-5.7966776e-19
0.0012183222
5.4542357e-19
0.0012183222
-9.6849223e-19
0.0012183222
-6.2235397e-19
0.0012183222
1.5504101e-18
0.0012183222
5.2499117e-20
0.0012183222
-7.0536843e-19
0.0012183222
-3.5173663e-19
0.0012183222
-3.1042697e-19
0.0012183222
1.1477656e-18
0.0012183222
4.9132994e-19
0.0012183222
-2.537481e-19
0.0012183222
2.3100921e-19
0.0012183222
8.5544593e-19
0.0012183222
3.8946072e-20
0.0012183222
-7.0476333e-19
0.0012183222
-6.7286767e-19
0.0012183222
3.6810393e-19
0.0012183222
2.1954091e-18
0.0012183222
8.0878464e-19
0.0012183222
8.6207611e-19
0.0012183222
1.7196962e-18
0.0012183222
-9.0167033e-19
0.0012183222
-1.8634469e-18
0.0012183222
-1.316706e-19
0.0012183222
1.8023286e-19
0.0012183222
-5.5300436e-19
0.0012183222
2.0196166e-18
0.0012183222
9.9969377e-19
0.0012183222
1.6057199e-18
0.0012183222
1.6948216e-18
0.0012183222
-2.3356745e-18
0.0012183222
-2.4038859e-18
0.0012183222
-3.1486984e-19
0.0012183222
5.7020718e-19
0.0012183222
3.7050539e-19
0.0012183222
4.5389833e-19
0.0012183222
-1.848978e-19
0.0012183222
8.6533145e-19
0.0012183222
-8.5315062e-19
0.0012183222
-3.6555157e-19
0.0012183222
-9.7292088e-19
0.0012183222
1.7052325e-19
0.0012183222
2.5741954e-18
0.0012183222
1.1181153e-18
0.0012183222
-1.1162319e-18
0.0012183222
-1.9660802e-18
0.0012183222
-1.2578832e-18
0.0012183222
-1.658107e-18
0.0012183222
-7.785282e-19
0.0012183222
-4.211679e-19
0.0012183222
7.1670653e-19
0.0012183222
2.1309844e-18
0.0012183222
2.0315829e-18
0.0012183222
-1.9203386e-19
0.0012183222
-5.1640365e-19
0.0012183222
-8.444171e-19
0.0012183222
-1.1652045e-18
0.0012183222
5.6904403e-19
0.0012183222
1.3688063e-20
0.0012183222
1.1095863e-18
0.0012183222
1.8270511e-18
0.0012183222
2.3540811e-19
0.0012183222
-5.0895201e-20
0.0012183222
-4.8727544e-20
0.0012183222
-7.7428387e-19
0.0012183222
-8.6768035e-19
0.0012183222
7.7618914e-20
0.0012183222
1.5351073e-18
0.0012183222
2.3736645e-19
0.0012183222
-8.2920047e-19
0.0012183222
2.5755524e-19
0.0012183222
-3.0107239e-19
0.0012183222
2.4131003e-19
0.0012183222
5.9328855e-19
0.0012183222
1.1960385e-19
0.0012183222
5.381458e-19
0.0012183222
1.3535182e-18
0.0012183222
-1.1727552e-19
0.0012183222
-1.5328657e-18
0.0012183222
3.8046409e-19
0.0012183222
9.5950707e-19
0.0012183222
-2.3825928e-19
0.0012183222
-3.4938849e-19
0.0012183222
-1.0261729e-18
0.0012183222
1.446865e-18
0.0012183222
3.008374e-18
0.0012183222
1.6176822e-20
0.0012183222
-2.6201841e-19
0.0012183222
-2.4010725e-18
0.0012183222
-1.6316359e-18
0.0012183222
3.0685381e-18
0.0012183222
1.0496631e-20
0.0012183222
4.0071923e-20
0.0012183222
3.9433206e-18
0.0012183222
-7.6804436e-19
0.0012183222
-2.3799204e-18
0.0012183222
-3.2610843e-19
0.0012183222
-1.1945107e-18
0.0012183222
-2.7932071e-19
0.0012183222
4.6525451e-19
0.0012183222
6.8216379e-19
0.0012183222
1.7261814e-18
0.0012183222
1.5842706e-18
0.0012183222
-1.8515348e-19
0.0012183222
-2.2381158e-18
0.0012183222
-3.338345e-18
0.0012183222
-5.9163331e-20
0.0012183222
1.7700816e-18
0.0012183222
-2.0616479e-18
0.0012183222
1.4798598e-18
0.0012183222
1.0453812e-18
0.0012183222
-3.0707406e-18
0.0012183222
1.5392048e-18
0.0012183222
3.0049274e-19
0.0012183222
-3.1191234e-18
0.0012183222
1.1065242e-19
0.0012183222
1.1484858e-18
0.0012183222
3.6019275e-19
0.0012183222
4.2971991e-18
0.0012183222
8.066887e-19
0.0012183222
-2.9870892e-18
0.0012183222
-4.0675622e-19
0.0012183222
-2.2151164e-18
-3.7527744e-18
0.0016876534
-3.1697491e-18
0.0016876534
-3.5333525e-18
0.0016876534
-3.1212964e-18
0.0016876534
-2.1936609e-18
0.0016876534
-1.3944736e-18
0.0016876534
-5.6006091e-19
0.0016876534
4.0239447e-19
0.0016876534
4.1995258e-19
0.0016876534
2.8407429e-19
0.0016876534
5.3558852e-21
0.0016876534
-3.1585581e-19
0.0016876534
-7.1328068e-19
0.0016876534
-1.0324304e-18
0.0016876534
-1.026949e-18
0.0016876534
-1.2384886e-18
0.0016876534
-1.6039469e-18
0.0016876534
-1.7063898e-18
0.0016876534
-2.2184631e-18
0.0016876534
-1.917187e-18
0.0016876534
-1.385378e-18
0.0016876534
-1.4017239e-18
0.0016876534
-1.1268944e-18
0.0016876534
-5.6077136e-19
0.0016876534
-4.5160966e-19
0.0016876534
-2.7712308e-19
0.0016876534
-2.9670694e-19
0.0016876534
-3.5625548e-19
0.0016876534
-1.4869689e-19
0.0016876534
-9.4328281e-19
0.0016876534
-1.1084987e-18
0.0016876534
-4.037876e-19
0.0016876534
2.3390487e-19
0.0016876534
4.9317768e-19
0.0016876534
1.8908703e-19
0.0016876534
1.058906e-19
0.0016876534
-1.545743e-19
0.0016876534
-4.8509201e-19
0.0016876534
1.0978047e-19
0.0016876534
3.4524581e-19
0.0016876534
1.9811539e-20
0.0016876534
8.436916e-20
0.0016876534
-5.9221315e-19
0.0016876534
-7.415949e-19
0.0016876534
-1.0097068e-18
0.0016876534
-3.5084485e-19
0.0016876534
-1.5221046e-19
0.0016876534
-5.9523874e-19
0.0016876534
-1.3366953e-18
0.0016876534
-1.2171885e-18
0.0016876534
-9.5381268e-19
0.0016876534
-9.4420756e-19
0.0016876534
-1.4849907e-18
0.0016876534
-1.9153471e-18
0.0016876534
-7.497737e-19
0.0016876534
-1.8241798e-19
0.0016876534
-6.364879e-19
0.0016876534
2.5621646e-19
0.0016876534
5.836633e-20
0.0016876534
1.9008074e-19
0.0016876534
2.6763577e-19
0.0016876534
3.5383901e-19
0.0016876534
6.2186379e-19
0.0016876534
9.541285e-19
0.0016876534
7.6212512e-19
0.0016876534
6.5983987e-19
0.0016876534
6.2261957e-19
0.0016876534
-1.4786008e-19
0.0016876534
-2.2443569e-19
0.0016876534
5.4034986e-19
0.0016876534
6.3496782e-19
0.0016876534
4.2078267e-19
0.0016876534
1.0684157e-18
0.0016876534
2.1887763e-18
0.0016876534
1.4338869e-18
0.0016876534
5.2959484e-19
0.0016876534
1.7718434e-18
0.0016876534
1.5893814e-18
0.0016876534
6.5656526e-19
0.0016876534
1.4327703e-19
0.0016876534
1.6569544e-18
0.0016876534
2.1127375e-18
0.0016876534
1.3489836e-18
0.0016876534
1.1762959e-18
0.0016876534
9.1459217e-19
0.0016876534
7.6233384e-19
0.0016876534
1.1596701e-18
0.0016876534
1.2392863e-18
0.0016876534
9.4507153e-19
0.0016876534
1.0078169e-18
0.0016876534
1.5002541e-18
0.0016876534
2.326211e-18
0.0016876534
1.3056688e-18
0.0016876534
1.5226929e-18
0.0016876534
1.5434474e-18
0.0016876534
6.4033232e-19
0.0016876534
-2.0756112e-19
0.0016876534
2.2579606e-19
0.0016876534
6.8771149e-19
0.0016876534
-9.7737184e-19
0.0016876534
-1.270635e-18
0.0016876534
4.67146e-19
0.0016876534
4.434406e-19
0.0016876534
-3.8338486e-19
0.0016876534
-1.1973601e-18
0.0016876534
-1.1722114e-18
0.0016876534
-6.4915638e-19
0.0016876534
-7.8053366e-19
0.0016876534
-4.5276295e-19
0.0016876534
1.6987963e-18
0.0016876534
1.3203827e-18
0.0016876534
2.5716954e-20
0.0016876534
-3.6949942e-19
0.0016876534
-9.3319648e-20
0.0016876534
1.097475e-18
0.0016876534
8.5530405e-19
0.0016876534
-5.4117753e-19
0.0016876534
-5.0078024e-19
0.0016876534
1.1057846e-18
0.0016876534
1.5024554e-18
0.0016876534
6.330587e-19
0.0016876534
-6.4568825e-19
0.0016876534
8.0123964e-20
0.0016876534
9.4588105e-19
0.0016876534
-6.4975899e-20
0.0016876534
-2.1017933e-19
0.0016876534
2.7119868e-19
0.0016876534
9.3908998e-21
0.0016876534
-5.4426397e-19
0.0016876534
-5.2053769e-19
0.0016876534
-7.3622914e-20
0.0016876534
6.4187685e-19
0.0016876534
3.4037849e-19
0.0016876534
1.5959562e-19
0.0016876534
-7.9529985e-19
0.0016876534
-1.1770782e-18
0.0016876534
2.5903013e-19
0.0016876534
-7.4860276e-19
0.0016876534
-6.4230915e-19
0.0016876534
1.072719e-18
0.0016876534
2.4262483e-19
0.0016876534
-3.3252789e-19