/*--------------------------------*- C++ -*----------------------------------*\
| =========                 |                                                 |
| \\      /  F ield         | OpenFOAM: The Open Source CFD Toolbox           |
|  \\    /   O peration     | Version:  2406                                  |
|   \\  /    A nd           | Website:  www.openfoam.com                      |
|    \\/     M anipulation  |                                                 |
\*---------------------------------------------------------------------------*/
FoamFile
{
    version     2.0;
    format      ascii;
    arch        "LSB;label=32;scalar=64";
    class       surfaceScalarField;
    location    "13";
    object      phi_0;
}
// * * * * * * * * * * * * * * * * * * * * * * * * * * * * * * * * * * * * * //

dimensions      [0 3 -1 0 0 0 0];

oriented        oriented;

internalField   nonuniform List<scalar> 
59600
(
0.00024966407
-5.8522334e-17
0.00024966407
-2.2475307e-17
0.00024966407
-9.7101992e-18
0.00024966407
-4.9259857e-18
0.00024966407
-2.8813505e-18
0.00024966407
-1.7478459e-18
0.00024966407
-1.2001271e-18
0.00024966407
-7.7371468e-19
0.00024966407
-5.8745431e-19
0.00024966407
-4.8172524e-19
0.00024966407
-3.866476e-19
0.00024966407
-3.5804763e-19
0.00024966407
-2.2003452e-19
0.00024966407
-1.3276772e-19
0.00024966407
-2.7177791e-19
0.00024966407
-2.949627e-19
0.00024966407
-3.0081802e-19
0.00024966407
-3.4511042e-19
0.00024966407
-2.5484185e-19
0.00024966407
-1.4422386e-19
0.00024966407
-1.6958323e-19
0.00024966407
-2.2961584e-19
0.00024966407
-3.1397861e-20
0.00024966407
-7.80579e-20
0.00024966407
-1.2496759e-19
0.00024966407
-1.9861828e-20
0.00024966407
-1.4267195e-19
0.00024966407
-1.7787048e-19
0.00024966407
-2.3818316e-19
0.00024966407
-1.3069565e-19
0.00024966407
4.5685285e-20
0.00024966407
-9.0402773e-21
0.00024966407
4.1995701e-20
0.00024966407
1.956348e-19
0.00024966407
-8.2897008e-20
0.00024966407
-4.4200588e-20
0.00024966407
-2.7940115e-20
0.00024966407
-4.9651005e-21
0.00024966407
2.0022703e-20
0.00024966407
-2.9505361e-20
0.00024966407
1.5155905e-19
0.00024966407
-1.2102818e-19
0.00024966407
-4.608314e-20
0.00024966407
6.8920949e-20
0.00024966407
-2.1308582e-19
0.00024966407
7.7732834e-20
0.00024966407
3.6924559e-20
0.00024966407
-2.7063155e-19
0.00024966407
-1.2475934e-19
0.00024966407
1.4281389e-19
0.00024966407
-1.171824e-19
0.00024966407
-1.8134984e-19
0.00024966407
-4.3493111e-19
0.00024966407
-3.1946554e-19
0.00024966407
4.266194e-20
0.00024966407
-1.6488088e-19
0.00024966407
1.2464349e-19
0.00024966407
-7.5960939e-20
0.00024966407
-1.6293237e-19
0.00024966407
1.2897234e-19
0.00024966407
2.2389206e-19
0.00024966407
-2.8347901e-20
0.00024966407
1.0543647e-19
0.00024966407
1.6166996e-19
0.00024966407
-7.8924649e-20
0.00024966407
1.2051458e-19
0.00024966407
-1.718971e-19
0.00024966407
-1.8017306e-19
0.00024966407
2.9053696e-19
0.00024966407
-1.9950076e-19
0.00024966407
-1.3316794e-19
0.00024966407
1.5768445e-19
0.00024966407
4.5884148e-19
0.00024966407
-4.8283823e-20
0.00024966407
-2.0451094e-19
0.00024966407
4.6488264e-19
0.00024966407
1.1476604e-19
0.00024966407
-2.8856786e-19
0.00024966407
6.6301138e-20
0.00024966407
3.0587937e-19
0.00024966407
1.3260693e-19
0.00024966407
8.4455205e-20
0.00024966407
2.4589238e-19
0.00024966407
2.7452761e-20
0.00024966407
-2.7623815e-19
0.00024966407
3.8625637e-19
0.00024966407
2.2834107e-19
0.00024966407
-1.1061677e-19
0.00024966407
1.2795449e-19
0.00024966407
1.703104e-21
0.00024966407
5.4688662e-20
0.00024966407
3.4196505e-19
0.00024966407
1.5303041e-19
0.00024966407
-1.9805582e-20
0.00024966407
-1.1478074e-20
0.00024966407
-5.3846369e-19
0.00024966407
2.0725328e-20
0.00024966407
3.244775e-19
0.00024966407
-3.0935362e-19
0.00024966407
-2.5955331e-19
0.00024966407
-9.8930503e-21
0.00024966407
1.1104673e-19
0.00024966407
-1.8062268e-19
0.00024966407
-1.4696674e-19
0.00024966407
1.5753331e-19
0.00024966407
-3.8790987e-19
0.00024966407
-2.5429567e-19
0.00024966407
-1.274684e-22
0.00024966407
8.6112788e-20
0.00024966407
4.3372647e-19
0.00024966407
-1.5488721e-19
0.00024966407
-4.5513091e-19
0.00024966407
3.9718573e-20
0.00024966407
5.5664466e-19
0.00024966407
3.1620356e-19
0.00024966407
-4.5445917e-19
0.00024966407
-5.6977633e-19
0.00024966407
2.9185057e-19
0.00024966407
4.2063446e-19
0.00024966407
3.2000296e-21
0.00024966407
-7.9051193e-20
0.00024966407
-1.2008655e-21
0.00024966407
3.8712487e-19
0.00024966407
1.6918552e-21
0.00024966407
-5.3464384e-19
0.00024966407
2.6357158e-19
0.00024966407
4.1353482e-20
0.00024966407
-3.5114572e-19
0.00024966407
3.5466643e-20
0.00024966407
4.8298626e-20
0.00024966407
-2.3753518e-19
0.00024966407
-4.9451554e-20
0.00024966407
5.4728065e-19
0.00024966407
-3.3886428e-19
0.00024966407
-3.9822183e-19
0.00024966407
2.2009429e-19
0.00024966407
1.5217468e-19
0.00024966407
-3.5313532e-19
0.00024966407
2.4718773e-19
0.00024966407
3.2865598e-19
0.00024966407
-5.9166233e-19
0.00024966407
-3.0359203e-19
0.00024966407
1.6828996e-19
0.00024966407
5.0953779e-19
0.00024966407
-1.151951e-19
0.00024966407
-7.3484441e-20
0.00024966407
6.2472953e-19
0.00024966407
-2.5278939e-19
0.00024966407
-5.681636e-19
0.00024966407
3.6432052e-19
0.00024966407
-3.4896137e-19
0.00024966407
-2.0640675e-19
0.00024966407
9.4466345e-19
0.00024966407
-4.803081e-19
0.00024966407
-2.796453e-19
0.00024966407
3.9966437e-19
0.00024966407
-5.4750846e-19
0.00024966407
-1.1551409e-19
0.00024966407
2.2119583e-19
0.00024966407
2.257049e-19
0.00024966407
-1.2088718e-19
0.00024966407
-2.9526196e-19
0.00024966407
-1.4852501e-19
0.00024966407
1.0146402e-19
0.00024966407
1.4005023e-20
0.00024966407
2.3146534e-20
0.00024966407
3.148915e-19
0.00024966407
-7.5510418e-19
0.00024966407
6.1146303e-19
0.00024966407
6.3309613e-19
0.00024966407
-8.9967905e-19
0.00024966407
3.9168497e-19
0.00024966407
6.8185833e-19
0.00024966407
-7.5066079e-19
0.00024966407
-2.6575853e-19
0.00024966407
-3.4072085e-20
0.00024966407
1.5068498e-19
0.00024966407
-3.3306018e-20
0.00024966407
-1.9832462e-19
0.00024966407
3.492562e-19
0.00024966407
-1.5151979e-19
0.00024966407
-2.4773172e-19
0.00024966407
-6.32054e-20
0.00024966407
-2.6580422e-19
0.00024966407
7.3254961e-19
0.00024966407
1.7434142e-19
0.00024966407
-4.8410053e-19
0.00024966407
3.4644591e-19
0.00024966407
1.2219575e-19
0.00024966407
-8.8866406e-20
0.00024966407
-2.0350232e-19
0.00024966407
-3.2262614e-19
0.00024966407
-3.224434e-19
0.00024966407
5.8389433e-19
0.00024966407
6.5818114e-19
0.00024966407
3.5421861e-20
0.00024966407
4.1518971e-19
0.00024966407
1.5082122e-19
0.00024966407
-8.7283715e-19
0.00024966407
-5.5076461e-19
0.00024966407
3.5755404e-19
0.00024966407
-4.9953471e-19
0.00024966407
6.3144611e-19
0.00024966407
5.1770562e-19
0.00024966407
2.0009402e-19
0.00024966407
6.8298069e-20
0.00024966407
-5.2859202e-19
0.00024966407
-2.449235e-19
0.00024966407
7.4992961e-21
0.00024966407
-2.3128695e-19
0.00024966407
3.8725923e-19
0.00024966407
8.5052795e-20
0.00024966407
-4.7802451e-19
0.00024966407
7.4221297e-19
0.00024966407
-3.9071977e-19
0.00024966407
-4.6624196e-19
0.00024966407
-1.6215928e-19
0.00024966407
9.4769153e-20
0.00024966407
5.9426611e-19
0.00024966407
8.0549627e-19
0.00024966407
-2.0271399e-19
0.00024966407
-8.203055e-19
0.00024966407
-3.8389966e-19
0.00024966407
-6.1545096e-19
0.00024966407
-1.2991912e-20
0.00024966407
3.5098595e-20
0.00024966407
2.9195666e-19
0.00024966407
6.8779985e-19
0.00024966407
4.7055148e-19
0.00024966407
1.3574368e-21
0.00024966407
-4.1440959e-19
0.00024966407
-8.8385696e-19
0.00024966407
2.7243194e-19
0.00024966407
1.6671018e-19
0.00024966407
-4.1571075e-19
0.00024966407
6.7935931e-19
0.00024966407
2.971591e-19
0.00024966407
4.4108733e-19
0.00024966407
-4.3424584e-19
0.00024966407
1.5676457e-19
0.00024966407
-2.3395403e-19
0.00024966407
-9.0793934e-19
0.00024966407
3.6658768e-19
0.00024966407
8.4361758e-19
0.00024966407
-3.0611515e-19
0.00024966407
-2.984938e-19
0.00024966407
5.6138291e-19
0.00024966407
-3.917971e-19
0.00024966407
-1.3361573e-19
0.00024966407
-4.5052863e-19
0.00024966407
-2.5964447e-20
0.00024966407
2.5535774e-19
0.00024966407
9.6654999e-19
0.00024966407
-3.5588937e-19
0.00024966407
-6.0243295e-19
0.00024966407
7.3539611e-19
0.00024966407
-3.4994938e-19
0.00024966407
-7.5657526e-19
0.00024966407
2.3898936e-19
0.00024966407
-8.9117728e-20
0.00024966407
3.1423444e-19
0.00024966407
9.5257448e-19
0.00024966407
-9.9106478e-19
0.00024966407
3.1318562e-19
0.00024966407
-4.9633003e-19
0.00024966407
-3.9454118e-19
0.00024966407
1.004017e-18
0.00024966407
-1.2113312e-18
0.00024966407
-1.2500827e-19
0.00024966407
2.287212e-18
0.00024966407
-1.0000881e-18
0.00024966407
-1.0472168e-18
0.00024966407
2.4754806e-19
0.00024966407
-6.1773569e-19
0.00024966407
1.0001021e-18
0.00024966407
-1.1700502e-18
0.00024966407
-1.0811462e-19
0.00024966407
1.4529419e-18
0.00024966407
6.4494407e-19
0.00024966407
-9.1010339e-19
0.00024966407
-8.2190194e-19
0.00024966407
-4.837843e-19
0.00024966407
-7.5430065e-20
0.00024966407
1.1542751e-19
0.00024966407
-1.0040996e-18
0.00024966407
9.5201772e-19
0.00024966407
-4.845403e-19
0.00024966407
-1.1922148e-18
0.00024966407
4.1239991e-19
0.00024966407
1.3666025e-19
0.00024966407
-1.3583402e-18
0.00024966407
-5.5878143e-19
0.00024966407
-7.9335008e-19
0.00024966407
-1.2291765e-18
0.00024966407
8.5393514e-19
0.00024966407
-9.4186041e-19
0.00024966407
-4.6505063e-18
0.00024966407
-4.5513586e-18
0.00024966407
-9.4606592e-18
-2.331608e-17
0.00073899253
-2.9834159e-17
0.00073899253
-2.0955078e-17
0.00073899253
-1.2870964e-17
0.00073899253
-7.9592604e-18
0.00073899253
-4.8530616e-18
0.00073899253
-3.0602152e-18
0.00073899253
-2.126419e-18
0.00073899253
-1.3206842e-18
0.00073899253
-1.0412728e-18
0.00073899253
-1.2324134e-18
0.00073899253
-8.2506524e-19
0.00073899253
-6.0889777e-19
0.00073899253
-6.4310924e-19
0.00073899253
-5.4271757e-19
0.00073899253
-7.5190361e-19
0.00073899253
-7.0183582e-19
0.00073899253
-8.1066435e-19
0.00073899253
-8.962658e-19
0.00073899253
-8.7068607e-19
0.00073899253
-5.7717985e-19
0.00073899253
-5.0802197e-19
0.00073899253
-6.3664257e-19
0.00073899253
-1.3155338e-19
0.00073899253
-8.5449027e-20
0.00073899253
-4.7575273e-21
0.00073899253
-1.1615368e-19
0.00073899253
-3.5513884e-19
0.00073899253
-4.9600017e-19
0.00073899253
-5.4803256e-19
0.00073899253
-2.9415185e-19
0.00073899253
-9.7851614e-20
0.00073899253
5.7462883e-21
0.00073899253
7.1341613e-20
0.00073899253
9.2118386e-20
0.00073899253
-1.1593293e-19
0.00073899253
2.2699117e-20
0.00073899253
-1.7706324e-19
0.00073899253
-4.208807e-20
0.00073899253
2.302473e-19
0.00073899253
-3.8553081e-20
0.00073899253
4.1741733e-20
0.00073899253
-1.5078564e-19
0.00073899253
-1.4485249e-19
0.00073899253
9.1804504e-20
0.00073899253
-1.7210729e-19
0.00073899253
-7.0816418e-20
0.00073899253
4.7318874e-20
0.00073899253
-4.8815076e-19
0.00073899253
-3.4952596e-19
0.00073899253
1.1339444e-19
0.00073899253
-3.2072668e-19
0.00073899253
-7.5523335e-19
0.00073899253
-1.146212e-18
0.00073899253
-7.7030741e-19
0.00073899253
-1.5607015e-19
0.00073899253
-3.3289553e-19
0.00073899253
3.2364564e-19
0.00073899253
-1.6095696e-19
0.00073899253
-2.1736755e-19
0.00073899253
3.5063459e-19
0.00073899253
2.2385057e-19
0.00073899253
1.6828866e-19
0.00073899253
2.9308544e-19
0.00073899253
7.0506578e-19
0.00073899253
2.8003768e-19
0.00073899253
1.7790435e-20
0.00073899253
-4.6151584e-19
0.00073899253
-3.1733548e-19
0.00073899253
2.4295891e-19
0.00073899253
-6.4528837e-20
0.00073899253
-2.3304369e-20
0.00073899253
3.2099226e-19
0.00073899253
8.143749e-19
0.00073899253
3.6713427e-19
0.00073899253
-9.2991775e-20
0.00073899253
1.0359195e-18
0.00073899253
3.8226667e-19
0.00073899253
-4.3653621e-19
0.00073899253
5.9472433e-20
0.00073899253
5.3981814e-19
0.00073899253
5.4574024e-19
0.00073899253
6.8553984e-19
0.00073899253
7.7183605e-19
0.00073899253
2.0524124e-19
0.00073899253
2.6574987e-20
0.00073899253
6.1011835e-19
0.00073899253
9.7204302e-20
0.00073899253
2.5157755e-19
0.00073899253
4.3296921e-19
0.00073899253
2.8570644e-19
0.00073899253
5.4085881e-19
0.00073899253
5.5538557e-19
0.00073899253
5.0980708e-19
0.00073899253
5.6715137e-19
0.00073899253
1.9914951e-19
0.00073899253
-1.1565427e-18
0.00073899253
-4.1912835e-19
0.00073899253
6.3305831e-19
0.00073899253
-5.8068032e-19
0.00073899253
-9.6021129e-19
0.00073899253
1.8223004e-19
0.00073899253
9.1806188e-20
0.00073899253
-3.9951262e-19
0.00073899253
-2.3320096e-19
0.00073899253
5.5982886e-21
0.00073899253
-4.7083058e-19
0.00073899253
-5.8704959e-19
0.00073899253
-4.8764949e-19
0.00073899253
3.1506352e-19
0.00073899253
7.6759801e-19
0.00073899253
-1.4323649e-19
0.00073899253
-6.8281502e-19
0.00073899253
-1.7110651e-19
0.00073899253
1.0952249e-18
0.00073899253
5.7714485e-19
0.00073899253
-1.1482175e-18
0.00073899253
-6.9844619e-19
0.00073899253
6.3670988e-19
0.00073899253
7.8309344e-19
0.00073899253
1.2409364e-19
0.00073899253
-1.1485268e-19
0.00073899253
2.5605304e-19
0.00073899253
8.4953112e-19
0.00073899253
1.9938349e-20
0.00073899253
-4.856096e-19
0.00073899253
6.0436326e-20
0.00073899253
-2.9141372e-19
0.00073899253
-3.5041858e-19
0.00073899253
1.756871e-19
0.00073899253
-3.1338215e-19
0.00073899253
-1.2945527e-19
0.00073899253
-1.26794e-19
0.00073899253
6.5638379e-19
0.00073899253
-4.9521113e-19
0.00073899253
-7.0708519e-19
0.00073899253
1.6733415e-19
0.00073899253
-3.5637969e-19
0.00073899253
-6.7135614e-19
0.00073899253
5.9001718e-19
0.00073899253
6.597752e-19
0.00073899253
-9.220911e-19
0.00073899253
-9.1009289e-19
0.00073899253
6.4557039e-19
0.00073899253
1.1348492e-18
0.00073899253
-4.8239753e-19
0.00073899253
-2.2172878e-19
0.00073899253
1.4063297e-18
0.00073899253
-2.9853007e-20
0.00073899253
-1.3099457e-18
0.00073899253
1.1194115e-19
0.00073899253
-6.1804231e-19
0.00073899253
1.2245545e-20
0.00073899253
1.1779191e-18
0.00073899253
-5.4596453e-19
0.00073899253
-2.1041376e-19
0.00073899253
2.6115401e-19
0.00073899253
-7.1379163e-19
0.00073899253
-3.4904188e-19
0.00073899253
-1.1064196e-19
0.00073899253
6.9779121e-19
0.00073899253
-2.5389215e-19
0.00073899253
-8.1411092e-19
0.00073899253
-2.8846061e-19
0.00073899253
-3.171139e-20
0.00073899253
-7.4215248e-20
0.00073899253
1.4617793e-19
0.00073899253
2.666015e-19
0.00073899253
-8.3550863e-19
0.00073899253
7.0288015e-19
0.00073899253
1.1830415e-18
0.00073899253
-5.0886854e-19
0.00073899253
7.9993157e-20
0.00073899253
5.4961233e-19
0.00073899253
-6.6216843e-19
0.00073899253
-1.1461607e-18
0.00073899253
-1.8901401e-19
0.00073899253
5.9800976e-19
0.00073899253
-6.0195309e-19
0.00073899253
-6.3313921e-19
0.00073899253
8.7808362e-19
0.00073899253
-7.9381892e-20
0.00073899253
-3.9544147e-19
0.00073899253
-4.6314593e-19
0.00073899253
-4.7201698e-19
0.00073899253
1.3481166e-18
0.00073899253
3.7638817e-19
0.00073899253
-6.7814376e-19
0.00073899253
3.5340552e-19
0.00073899253
5.4773404e-19
0.00073899253
-1.3092237e-19
0.00073899253
-5.3251426e-19
0.00073899253
-6.652086e-19
0.00073899253
-1.3919532e-19
0.00073899253
1.3829896e-18
0.00073899253
8.8343802e-19
0.00073899253
6.316243e-19
0.00073899253
1.1342054e-18
0.00073899253
-3.9427745e-19
0.00073899253
-1.5136499e-18
0.00073899253
-6.1659102e-19
0.00073899253
-6.7766853e-20
0.00073899253
-6.6438479e-19
0.00073899253
1.4928047e-18
0.00073899253
8.6414707e-19
0.00073899253
6.5771932e-19
0.00073899253
1.1382414e-18
0.00073899253
-1.4198369e-18
0.00073899253
-1.4747303e-18
0.00073899253
-2.7885154e-19
0.00073899253
9.1665786e-20
0.00073899253
5.3650453e-19
0.00073899253
2.5181321e-19
0.00073899253
-4.5691369e-19
0.00073899253
6.9724253e-19
0.00073899253
-4.2907532e-19
0.00073899253
-5.2635177e-19
0.00073899253
-7.0242912e-19
0.00073899253
1.8454022e-19
0.00073899253
1.8925752e-18
0.00073899253
1.0433185e-18
0.00073899253
-7.711303e-19
0.00073899253
-1.5937939e-18
0.00073899253
-8.1584591e-19
0.00073899253
-1.4582295e-18
0.00073899253
-3.1753747e-19
0.00073899253
-3.2279833e-21
0.00073899253
2.8321339e-19
0.00073899253
1.7096603e-18
0.00073899253
1.7725516e-18
0.00073899253
-4.7827127e-19
0.00073899253
-7.8140394e-19
0.00073899253
-9.5391443e-19
0.00073899253
-5.7767345e-19
0.00073899253
5.1988073e-19
0.00073899253
-3.0641553e-19
0.00073899253
1.0195456e-18
0.00073899253
1.2224474e-18
0.00073899253
2.3932991e-19
0.00073899253
-2.6915655e-19
0.00073899253
3.5277501e-19
0.00073899253
-6.9129443e-19
0.00073899253
-1.3141195e-18
0.00073899253
1.4160496e-19
0.00073899253
1.5071548e-18
0.00073899253
-9.282211e-21
0.00073899253
-6.8914809e-19
0.00073899253
5.8502994e-19
0.00073899253
-2.0144307e-19
0.00073899253
-4.4433894e-19
0.00073899253
-2.9116691e-19
0.00073899253
-4.7194455e-20
0.00073899253
3.0589962e-19
0.00073899253
1.3966243e-18
0.00073899253
-3.5871026e-19
0.00073899253
-1.2040748e-18
0.00073899253
7.206431e-19
0.00073899253
2.3577082e-19
0.00073899253
-8.6961293e-19
0.00073899253
-7.2117899e-20
0.00073899253
-5.0177769e-19
0.00073899253
6.9788186e-19
0.00073899253
1.775379e-18
0.00073899253
-5.7114952e-19
0.00073899253
-4.8700543e-20
0.00073899253
-1.4965375e-18
0.00073899253
-1.203748e-18
0.00073899253
2.1394748e-18
0.00073899253
-1.2045775e-18
0.00073899253
-2.3455886e-19
0.00073899253
3.6867577e-18
0.00073899253
-1.0587802e-18
0.00073899253
-2.1697912e-18
0.00073899253
-2.7397642e-19
0.00073899253
-9.5807351e-19
0.00073899253
8.8750899e-19
0.00073899253
-8.8085874e-19
0.00073899253
-2.5781199e-19
0.00073899253
2.0519199e-18
0.00073899253
1.0803586e-18
0.00073899253
-8.9160716e-19
0.00073899253
-1.8043034e-18
0.00073899253
-1.8525177e-18
0.00073899253
-1.481657e-19
0.00073899253
6.8139353e-19
0.00073899253
-1.980746e-18
0.00073899253
6.8286021e-19
0.00073899253
-5.7671444e-20
0.00073899253
-2.6041564e-18
0.00073899253
5.1983766e-19
0.00073899253
-3.5964742e-19
0.00073899253
-2.5519749e-18
0.00073899253
-9.1525928e-19
0.00073899253
-1.4513084e-18
0.00073899253
-1.6829045e-18
0.00073899253
1.529318e-18
0.00073899253
-2.3382634e-18
0.00073899253
-7.0671297e-18
0.00073899253
-7.3848923e-18
0.00073899253
-1.283016e-17
-2.1514594e-17
0.001218322
-1.9387527e-17
0.001218322
-1.6948627e-17
0.001218322
-1.2814671e-17
0.001218322
-9.1834735e-18
0.001218322
-6.2959708e-18
0.001218322
-4.133698e-18
0.001218322
-2.8266251e-18
0.001218322
-1.9238284e-18
0.001218322
-1.6521639e-18
0.001218322
-1.501765e-18
0.001218322
-1.6093189e-18
0.001218322
-1.2681285e-18
0.001218322
-1.1661207e-18
0.001218322
-1.278963e-18
0.001218322
-1.242346e-18
0.001218322
-1.7120709e-18
0.001218322
-1.5684408e-18
0.001218322
-1.4846558e-18
0.001218322
-1.3818541e-18
0.001218322
-1.2575205e-18
0.001218322
-1.4426874e-18
0.001218322
-8.2349204e-19
0.001218322
-5.6496771e-19
0.001218322
-3.4137536e-19
0.001218322
-2.6135398e-19
0.001218322
-1.974834e-19
0.001218322
-3.8869128e-19
0.001218322
-3.0825165e-19
0.001218322
-8.2480753e-19
0.001218322
-8.002688e-19
0.001218322
-5.3145628e-19
0.001218322
-7.4002959e-20
0.001218322
2.388942e-19
0.001218322
1.3100008e-19
0.001218322
1.9756332e-19
0.001218322
-1.6161647e-19
0.001218322
-5.9029182e-19
0.001218322
8.4774293e-20
0.001218322
2.8712454e-19
0.001218322
-1.8982208e-19
0.001218322
1.137663e-19
0.001218322
-3.3988227e-19
0.001218322
-4.717808e-19
0.001218322
-5.5255469e-19
0.001218322
-3.6604105e-19
0.001218322
-4.846152e-20
0.001218322
-6.5382066e-20
0.001218322
-6.1413281e-19
0.001218322
-6.2119301e-19
0.001218322
-4.2766378e-19
0.001218322
-7.0120961e-19
0.001218322
-1.2327238e-18
0.001218322
-1.6611364e-18
0.001218322
-9.8555837e-19
0.001218322
-2.1402432e-19
0.001218322
-2.8792395e-19
0.001218322
3.7494657e-19
0.001218322
-7.8192627e-20
0.001218322
-1.6014569e-19
0.001218322
3.1311653e-19
0.001218322
2.0442625e-19
0.001218322
6.8317566e-19
0.001218322
3.2634044e-19
0.001218322
6.9374679e-19
0.001218322
6.2915907e-19
0.001218322
2.8867875e-19
0.001218322
-3.5911696e-19
0.001218322
-3.480106e-19
0.001218322
2.4147514e-19
0.001218322
3.3788804e-19
0.001218322
2.4895212e-19
0.001218322
3.9075728e-19
0.001218322
1.0756867e-18
0.001218322
5.4509059e-19
0.001218322
3.0576781e-19
0.001218322
1.3834677e-18
0.001218322
1.0160088e-18
0.001218322
-9.1325231e-20
0.001218322
6.1873716e-20
0.001218322
8.1613176e-19
0.001218322
1.5619567e-18
0.001218322
1.005301e-18
0.001218322
8.7856929e-19
0.001218322
4.7057321e-19
0.001218322
2.6879731e-19
0.001218322
7.9687481e-19
0.001218322
4.411671e-19
0.001218322
7.0610844e-19
0.001218322
6.7850914e-19
0.001218322
7.0355315e-19
0.001218322
1.0694686e-18
0.001218322
7.309933e-19
0.001218322
1.0408064e-18
0.001218322
1.0902928e-18
0.001218322
1.3251324e-19
0.001218322
-7.7702919e-19
0.001218322
-2.9627088e-19
0.001218322
7.0614193e-19
0.001218322
-9.9623574e-19
0.001218322
-1.3968349e-18
0.001218322
1.7590414e-19
0.001218322
2.1081105e-19
0.001218322
-3.0474686e-19
0.001218322
-9.8114776e-19
0.001218322
-8.4786462e-19
0.001218322
-4.6959798e-19
0.001218322
-6.9203085e-19
0.001218322
-5.642389e-19
0.001218322
9.3363851e-19
0.001218322
9.6460323e-19
0.001218322
-2.3099068e-19
0.001218322
-6.2239651e-19
0.001218322
-1.5227457e-19
0.001218322
1.1596023e-18
0.001218322
7.2895778e-19
0.001218322
-9.9498683e-19
0.001218322
-5.2637442e-19
0.001218322
1.0321565e-18
0.001218322
9.5585197e-19
0.001218322
1.9202461e-19
0.001218322
-1.6233344e-19
0.001218322
4.4771867e-19
0.001218322
5.9216162e-19
0.001218322
-1.500488e-19
0.001218322
-3.1848687e-19
0.001218322
2.291433e-19
0.001218322
-4.6935928e-19
0.001218322
-3.5759113e-19
0.001218322
-1.3140953e-19
0.001218322
-4.6542428e-19
0.001218322
6.01225e-20
0.001218322
1.8805202e-20
0.001218322
4.6573712e-19
0.001218322
-4.06278e-19
0.001218322
-8.0320917e-19
0.001218322
1.0756826e-19
0.001218322
-7.8825035e-19
0.001218322
-5.6862864e-19
0.001218322
6.4691733e-19
0.001218322
6.1314721e-19
0.001218322
-8.0987829e-19
0.001218322
-1.0615377e-18
0.001218322
1.1855994e-18
0.001218322
1.7173046e-18
0.001218322
-9.4262608e-19
0.001218322
-6.7136773e-20
0.001218322
1.9111052e-18
0.001218322
-5.9138981e-19
0.001218322
-1.9662123e-18
0.001218322
-5.5930503e-19
0.001218322
-7.1012245e-19
0.001218322
3.3547694e-19
0.001218322
1.1749243e-18
0.001218322
-5.1708093e-19
0.001218322
-4.6491162e-19
0.001218322
-1.3859644e-19
0.001218322
-8.4220861e-19
0.001218322
-7.7410623e-19
0.001218322
-3.3970328e-19
0.001218322
1.0217646e-18
0.001218322
2.5824828e-19
0.001218322
-7.7382806e-19
0.001218322
-6.0140375e-19
0.001218322
-4.9792827e-19
0.001218322
-2.7056475e-19
0.001218322
7.9249803e-20
0.001218322
1.506888e-19
0.001218322
-6.5737638e-19
0.001218322
8.5335155e-19
0.001218322
1.4682467e-18
0.001218322
-5.5248644e-20
0.001218322
-2.5733821e-19
0.001218322
7.8167078e-21
0.001218322
-5.6573061e-19
0.001218322
-1.5209261e-18
0.001218322
-5.6937279e-19
0.001218322
7.1981245e-19
0.001218322
-9.1184546e-19
0.001218322
-7.5648755e-19
0.001218322
1.5183617e-18
0.001218322
1.7690034e-19
0.001218322
-6.0427067e-19
0.001218322
-3.8795566e-19
0.001218322
-2.7068319e-19
0.001218322
1.1249416e-18
0.001218322
4.5446869e-19
0.001218322
-2.9229193e-19
0.001218322
2.7690766e-19
0.001218322
8.5379264e-19
0.001218322
6.5129493e-20
0.001218322
-8.9114655e-19
0.001218322
-8.4732046e-19
0.001218322
3.0911634e-19
0.001218322
2.1878796e-18
0.001218322
8.205076e-19
0.001218322
8.4177768e-19
0.001218322
1.6355317e-18
0.001218322
-1.0939979e-18
0.001218322
-1.9736286e-18
0.001218322
-7.9791023e-20
0.001218322
7.7594682e-20
0.001218322
-5.8576816e-19
0.001218322
1.8906506e-18
0.001218322
9.80432e-19
0.001218322
1.4642095e-18
0.001218322
1.6142072e-18
0.001218322
-2.3094117e-18
0.001218322
-2.4936475e-18
0.001218322
-3.3674876e-19
0.001218322
3.6403893e-19
0.001218322
3.692088e-19
0.001218322
3.5306297e-19
0.001218322
-3.2746763e-19
0.001218322
7.8735049e-19
0.001218322
-9.4374217e-19
0.001218322
-3.4517945e-19
0.001218322
-1.162488e-18
0.001218322
2.4199455e-20
0.001218322
2.6080416e-18
0.001218322
1.2062734e-18
0.001218322
-1.0608245e-18
0.001218322
-1.8942376e-18
0.001218322
-1.2807673e-18
0.001218322
-1.6022281e-18
0.001218322
-7.3776458e-19
0.001218322
-5.2597895e-19
0.001218322
7.3235089e-19
0.001218322
2.117667e-18
0.001218322
2.0077145e-18
0.001218322
-3.1128511e-19
0.001218322
-4.6405782e-19
0.001218322
-8.4912676e-19
0.001218322
-1.2229196e-18
0.001218322
5.0696361e-19
0.001218322
-1.1481607e-19
0.001218322
1.1266593e-18
0.001218322
1.7764208e-18
0.001218322
1.7765828e-19
0.001218322
-9.4036747e-20
0.001218322
2.6830839e-20
0.001218322
-8.5141974e-19
0.001218322
-9.4515237e-19
0.001218322
-1.9530811e-21
0.001218322
1.5830515e-18
0.001218322
2.0457864e-19
0.001218322
-9.3671945e-19
0.001218322
1.5255103e-19
0.001218322
-3.6064165e-19
0.001218322
1.3728667e-19
0.001218322
5.6525778e-19
0.001218322
9.2220339e-20
0.001218322
2.2818686e-19
0.001218322
1.2140624e-18
0.001218322
-1.6402597e-19
0.001218322
-1.5322189e-18
0.001218322
3.577892e-19
0.001218322
8.0959446e-19
0.001218322
-3.3980398e-19
0.001218322
-4.5326841e-19
0.001218322
-1.3707561e-18
0.001218322
1.2380999e-18
0.001218322
2.949734e-18
0.001218322
-1.1516941e-19
0.001218322
-4.6514691e-19
0.001218322
-2.6702182e-18
0.001218322
-2.0399274e-18
0.001218322
2.7122478e-18
0.001218322
-2.1451488e-19
0.001218322
-1.9972408e-19
0.001218322
3.9506642e-18
0.001218322
-8.5460393e-19
0.001218322
-2.5394728e-18
0.001218322
-5.3092534e-19
0.001218322
-1.3324227e-18
0.001218322
-4.0154654e-19
0.001218322
1.405407e-19
0.001218322
3.5060296e-19
0.001218322
1.3851484e-18
0.001218322
1.0802479e-18
0.001218322
-5.8388437e-19
0.001218322
-2.6150321e-18
0.001218322
-3.6431931e-18
0.001218322
-4.4795072e-19
0.001218322
1.2358518e-18
0.001218322
-2.7490692e-18
0.001218322
6.6080986e-19
0.001218322
2.1289135e-19
0.001218322
-3.9440112e-18
0.001218322
4.1146756e-19
0.001218322
-8.0344578e-19
0.001218322
-4.3614379e-18
0.001218322
-1.55972e-18
0.001218322
-7.2950539e-19
0.001218322
-2.0586058e-18
0.001218322
1.1105284e-18
0.001218322
-3.2990693e-18
0.001218322
-8.4070775e-18
0.001218322
-7.9164368e-18
0.001218322
-1.2484462e-17
-1.7288547e-17
0.0016876531
-1.4441937e-17
0.0016876531
-1.4097038e-17
0.0016876531
-1.207786e-17
0.0016876531
-9.2170002e-18
0.0016876531
-6.8909516e-18
0.0016876531
-4.843267e-18
0.0016876531
-3.1589424e-18
0.0016876531
-2.3648187e-18
0.0016876531
-2.1146236e-18
0.0016876531
-1.8874273e-18
0.0016876531
-2.0146971e-18
0.0016876531
-2.3429454e-18
0.0016876531
-2.3000983e-18
0.0016876531
-2.1673436e-18
0.0016876531
-2.2558009e-18
0.0016876531
-2.3871804e-18
0.0016876531
-2.601123e-18
0.0016876531
-2.9440609e-18
0.0016876531
-2.341048e-18
0.0016876531
-1.9936719e-18
0.0016876531
-1.7190245e-18
0.0016876531
-1.4183915e-18
0.0016876531
-1.0078659e-18
0.0016876531
-7.8211894e-19
0.0016876531
-3.7721318e-19
0.0016876531
-5.8021303e-19
0.0016876531
-7.0180176e-19
0.0016876531
-7.3502156e-19
0.0016876531
-1.1687861e-18
0.0016876531
-1.1173732e-18
0.0016876531
-4.6797637e-19
0.0016876531
6.5291734e-21
0.0016876531
2.0983404e-19
0.0016876531
1.427146e-19
0.0016876531
-1.5173217e-19
0.0016876531
-1.0626729e-19
0.0016876531
-4.9298072e-19
0.0016876531
-1.7895652e-19
0.0016876531
1.0446996e-19
0.0016876531
-2.3670891e-19
0.0016876531
-7.3914758e-20
0.0016876531
-6.207897e-19
0.0016876531
-8.4080809e-19
0.0016876531
-8.5449839e-19
0.0016876531
-5.6854408e-19
0.0016876531
-2.3553581e-19
0.0016876531
-6.9267193e-19
0.0016876531
-1.4491593e-18
0.0016876531
-1.1883123e-18
0.0016876531
-1.1824721e-18
0.0016876531
-1.2722119e-18
0.0016876531
-1.6483824e-18
0.0016876531
-1.885182e-18
0.0016876531
-9.0466806e-19
0.0016876531
-3.2037755e-19
0.0016876531
-5.8258335e-19
0.0016876531
2.5516713e-19
0.0016876531
-9.3085193e-20
0.0016876531
3.6356647e-20
0.0016876531
4.1590115e-19
0.0016876531
2.5788411e-19
0.0016876531
5.2431279e-19
0.0016876531
9.51561e-19
0.0016876531
7.3518045e-19
0.0016876531
6.2650134e-19
0.0016876531
5.6312433e-19
0.0016876531
3.6547929e-20
0.0016876531
-2.2443745e-19
0.0016876531
4.8130895e-19
0.0016876531
5.0978834e-19
0.0016876531
3.6213838e-19
0.0016876531
9.8984693e-19
0.0016876531
1.9496987e-18
0.0016876531
1.2519018e-18
0.0016876531
5.6796113e-19
0.0016876531
1.9102397e-18
0.0016876531
1.6652376e-18
0.0016876531
4.5611539e-19
0.0016876531
1.8702194e-19
0.0016876531
1.6220612e-18
0.0016876531
1.9369889e-18
0.0016876531
1.3840631e-18
0.0016876531
9.4000502e-19
0.0016876531
5.1476447e-19
0.0016876531
6.3608114e-19
0.0016876531
9.3413081e-19
0.0016876531
1.175312e-18
0.0016876531
8.07903e-19
0.0016876531
9.605766e-19
0.0016876531
1.4931532e-18
0.0016876531
2.3500717e-18
0.0016876531
1.4503554e-18
0.0016876531
1.6542191e-18
0.0016876531
1.4203481e-18
0.0016876531
6.0004115e-19
0.0016876531
-2.2040839e-19
0.0016876531
3.2729301e-19
0.0016876531
4.3558284e-19
0.0016876531
-1.1927906e-18
0.0016876531
-1.4467259e-18
0.0016876531
2.6335073e-19
0.0016876531
2.4984739e-20
0.0016876531
-7.256367e-19
0.0016876531
-1.2627839e-18
0.0016876531
-9.7980838e-19
0.0016876531
-6.9453627e-19
0.0016876531
-9.8955348e-19
0.0016876531
-4.3785863e-19
0.0016876531
1.5074965e-18
0.0016876531
1.1590514e-18
0.0016876531
-1.0938781e-19
0.0016876531
-2.2907126e-19
0.0016876531
-8.0011574e-20
0.0016876531
1.191022e-18
0.0016876531
9.0230282e-19
0.0016876531
-4.6184602e-19
0.0016876531
-3.9942151e-19
0.0016876531
9.1387059e-19
0.0016876531
1.4571014e-18
0.0016876531
6.0708753e-19
0.0016876531
-6.6862582e-19
0.0016876531
1.7128075e-20
0.0016876531
6.6639512e-19
0.0016876531
-1.5727454e-19
0.0016876531
-2.25656e-19
0.0016876531
1.2488943e-19
0.0016876531
-5.9590366e-20
0.0016876531
-7.3193075e-19
0.0016876531
-6.7788489e-19
0.0016876531
-3.1251578e-19
0.0016876531
5.4750296e-19
0.0016876531
2.4377358e-19
0.0016876531
3.4047997e-19
0.0016876531
-8.8628212e-19
0.0016876531
-1.1195121e-18
0.0016876531
-7.9374649e-20
0.0016876531
-1.0625396e-18
0.0016876531
-6.2005513e-19
0.0016876531
1.1059137e-18
0.0016876531
3.837995e-19
0.0016876531
-3.0580013e-19
0.0016876531
-8.0515038e-19
0.0016876531
1.8493893e-18
0.0016876531
2.0481702e-18
0.0016876531
-1.1105578e-18
0.0016876531
8.4816558e-20
0.0016876531
2.1006738e-18
0.0016876531
-1.2663003e-18