/*--------------------------------*- C++ -*----------------------------------*\
| =========                 |                                                 |
| \\      /  F ield         | OpenFOAM: The Open Source CFD Toolbox           |
|  \\    /   O peration     | Version:  2406                                  |
|   \\  /    A nd           | Website:  www.openfoam.com                      |
|    \\/     M anipulation  |                                                 |
\*---------------------------------------------------------------------------*/
FoamFile
{
    version     2.0;
    format      ascii;
    arch        "LSB;label=32;scalar=64";
    class       volVectorField;
    location    "13";
    object      U;
}
// * * * * * * * * * * * * * * * * * * * * * * * * * * * * * * * * * * * * * //

dimensions      [0 1 -1 0 0 0 0];

internalField   nonuniform List<vector> 
30000
(
(0.24966411 -5.9332751e-15 0)
(0.24966411 -3.3623128e-15 0)
(0.24966411 -1.9169275e-16 0)
(0.24966411 1.0022668e-16 0)
(0.24966411 1.238704e-16 0)
(0.24966411 1.1729065e-16 0)
(0.24966411 1.0047939e-16 0)
(0.24966411 1.1253026e-16 0)
(0.24966411 7.3921636e-17 0)
(0.24966411 1.0855036e-16 0)
(0.24966411 6.1303618e-17 0)
(0.24966411 1.4644489e-17 0)
(0.24966411 6.8708405e-17 0)
(0.24966411 9.5872084e-17 0)
(0.24966411 3.2063658e-17 0)
(0.24966411 -2.192599e-17 0)
(0.24966411 -1.4922315e-17 0)
(0.24966411 -9.1123561e-18 0)
(0.24966411 -7.3563447e-18 0)
(0.24966411 4.1019492e-17 0)
(0.24966411 7.4381378e-17 0)
(0.24966411 -2.4801135e-17 0)
(0.24966411 1.2256721e-17 0)
(0.24966411 1.2908842e-17 0)
(0.24966411 3.7203189e-18 0)
(0.24966411 3.403553e-17 0)
(0.24966411 -4.0132762e-17 0)
(0.24966411 3.9340475e-17 0)
(0.24966411 -6.23125e-17 0)
(0.24966411 2.1679164e-17 0)
(0.24966411 1.0498475e-16 0)
(0.24966411 -1.1654013e-16 0)
(0.24966411 4.6124612e-17 0)
(0.24966411 1.6964212e-16 0)
(0.24966411 -7.3163748e-17 0)
(0.24966411 1.6487292e-17 0)
(0.24966411 6.5351146e-19 0)
(0.24966411 -1.8385451e-17 0)
(0.24966411 -5.4629252e-18 0)
(0.24966411 -5.2185321e-17 0)
(0.24966411 4.7745813e-17 0)
(0.24966411 -7.3570021e-17 0)
(0.24966411 1.5929044e-16 0)
(0.24966411 7.5496638e-17 0)
(0.24966411 -2.3682581e-16 0)
(0.24966411 1.6085743e-17 0)
(0.24966411 1.368214e-16 0)
(0.24966411 -1.1676398e-16 0)
(0.24966411 -9.5519884e-17 0)
(0.24966411 9.7759065e-17 0)
(0.24966411 1.6412823e-17 0)
(0.24966411 7.0784083e-17 0)
(0.24966411 -2.2180421e-16 0)
(0.24966411 -2.0340459e-16 0)
(0.24966411 9.4514409e-17 0)
(0.24966411 1.1495419e-18 0)
(0.24966411 1.7295991e-16 0)
(0.24966411 -1.4148584e-16 0)
(0.24966411 -1.4999257e-16 0)
(0.24966411 1.5008139e-16 0)
(0.24966411 1.393274e-16 0)
(0.24966411 -1.2532769e-16 0)
(0.24966411 4.3745439e-17 0)
(0.24966411 1.1309477e-16 0)
(0.24966411 -2.683218e-16 0)
(0.24966411 3.7350894e-17 0)
(0.24966411 1.1185767e-16 0)
(0.24966411 9.1285342e-17 0)
(0.24966411 5.2847867e-17 0)
(0.24966411 -1.6244758e-16 0)
(0.24966411 -1.2020728e-16 0)
(0.24966411 4.0988405e-17 0)
(0.24966411 3.1939005e-16 0)
(0.24966411 -1.5318229e-16 0)
(0.24966411 -2.1295431e-16 0)
(0.24966411 3.3014991e-16 0)
(0.24966411 5.4566033e-17 0)
(0.24966411 -3.0769584e-16 0)
(0.24966411 -4.058697e-17 0)
(0.24966411 1.2785842e-16 0)
(0.24966411 3.3545048e-17 0)
(0.24966411 2.0197406e-18 0)
(0.24966411 5.4525144e-17 0)
(0.24966411 1.369977e-16 0)
(0.24966411 -2.8187926e-16 0)
(0.24966411 2.0005814e-16 0)
(0.24966411 2.7103012e-16 0)
(0.24966411 -2.1960428e-16 0)
(0.24966411 5.0687594e-18 0)
(0.24966411 -1.233603e-16 0)
(0.24966411 3.2021609e-17 0)
(0.24966411 2.8753682e-16 0)
(0.24966411 -8.9606898e-17 0)
(0.24966411 -2.6365457e-18 0)
(0.24966411 9.3056706e-17 0)
(0.24966411 -4.6818996e-16 0)
(0.24966411 9.4128588e-17 0)
(0.24966411 3.113453e-16 0)
(0.24966411 -1.9052452e-16 0)
(0.24966411 -9.7349997e-17 0)
(0.24966411 2.0302985e-17 0)
(0.24966411 2.6906062e-16 0)
(0.24966411 -2.9668048e-16 0)
(0.24966411 -2.3908827e-16 0)
(0.24966411 5.2853224e-16 0)
(0.24966411 -2.4735928e-16 0)
(0.24966411 -2.7346822e-16 0)
(0.24966411 1.9660878e-16 0)
(0.24966411 3.9413607e-17 0)
(0.24966411 3.4302924e-16 0)
(0.24966411 -2.8310302e-16 0)
(0.24966411 -3.6348631e-16 0)
(0.24966411 2.1162501e-16 0)
(0.24966411 1.2759474e-16 0)
(0.24966411 3.65249e-16 0)
(0.24966411 -9.4378115e-17 0)
(0.24966411 -6.1704886e-16 0)
(0.24966411 6.494264e-17 0)
(0.24966411 3.4135718e-16 0)
(0.24966411 2.772415e-17 0)
(0.24966411 -3.1315188e-17 0)
(0.24966411 5.2171051e-18 0)
(0.24966411 3.8594086e-16 0)
(0.24966411 -4.1912064e-18 0)
(0.24966411 -5.6968596e-16 0)
(0.24966411 2.7717076e-16 0)
(0.24966411 2.4530345e-16 0)
(0.24966411 -2.9370468e-16 0)
(0.24966411 -1.2903962e-17 0)
(0.24966411 2.8730237e-17 0)
(0.24966411 -2.8321107e-16 0)
(0.24966411 -3.6344175e-17 0)
(0.24966411 3.3628048e-16 0)
(0.24966411 -3.9479544e-17 0)
(0.24966411 -7.6779661e-17 0)
(0.24966411 2.7256035e-17 0)
(0.24966411 2.2965549e-16 0)
(0.24966411 -2.9318321e-16 0)
(0.24966411 7.9981512e-17 0)
(0.24966411 3.2998465e-16 0)
(0.24966411 -3.8337809e-16 0)
(0.24966411 -3.5567771e-16 0)
(0.24966411 3.2152624e-17 0)
(0.24966411 3.5942218e-16 0)
(0.24966411 5.2387251e-18 0)
(0.24966411 -1.6023556e-17 0)
(0.24966411 4.0877313e-16 0)
(0.24966411 -3.1496906e-16 0)
(0.24966411 -4.0712029e-16 0)
(0.24966411 3.1348292e-16 0)
(0.24966411 -1.5338507e-17 0)
(0.24966411 -6.5434954e-18 0)
(0.24966411 4.5046838e-16 0)
(0.24966411 -3.246646e-16 0)
(0.24966411 -5.8856105e-17 0)
(0.24966411 2.6423012e-16 0)
(0.24966411 -6.2395812e-16 0)
(0.24966411 -2.9246214e-16 0)
(0.24966411 5.7594032e-16 0)
(0.24966411 5.6477387e-16 0)
(0.24966411 -4.8477367e-16 0)
(0.24966411 -1.2745104e-16 0)
(0.24966411 -3.1119905e-17 0)
(0.24966411 2.4405569e-17 0)
(0.24966411 9.0560896e-18 0)
(0.24966411 -2.2676616e-17 0)
(0.24966411 3.6018092e-17 0)
(0.24966411 -5.5366878e-16 0)
(0.24966411 8.7545718e-16 0)
(0.24966411 1.1439628e-16 0)
(0.24966411 -9.03014e-16 0)
(0.24966411 7.6031513e-16 0)
(0.24966411 4.0360078e-16 0)
(0.24966411 -8.4023413e-16 0)
(0.24966411 1.2488314e-16 0)
(0.24966411 1.1640818e-17 0)
(0.24966411 2.10642e-17 0)
(0.24966411 -4.9386302e-17 0)
(0.24966411 -2.4786751e-17 0)
(0.24966411 3.0305137e-16 0)
(0.24966411 -4.9537428e-16 0)
(0.24966411 -3.8840034e-17 0)
(0.24966411 2.0368519e-16 0)
(0.24966411 -2.8427193e-16 0)
(0.24966411 6.285774e-16 0)
(0.24966411 2.7384733e-17 0)
(0.24966411 -5.8225281e-16 0)
(0.24966411 5.3594837e-16 0)
(0.24966411 6.4510223e-17 0)
(0.24966411 -2.8087152e-16 0)
(0.24966411 -2.4781095e-17 0)
(0.24966411 -8.6389951e-17 0)
(0.24966411 -5.684292e-16 0)
(0.24966411 3.7916369e-16 0)
(0.24966411 6.1022399e-16 0)
(0.24966411 -1.957957e-16 0)
(0.24966411 1.470784e-16 0)
(0.24966411 4.8774351e-16 0)
(0.24966411 -6.7888702e-16 0)
(0.24966411 -6.0576802e-16 0)
(0.24966411 4.9438949e-16 0)
(0.24966411 -9.6735934e-17 0)
(0.24966411 1.0735042e-16 0)
(0.24966411 1.512643e-16 0)
(0.24966411 5.3132025e-16 0)
(0.24966411 -4.476322e-16 0)
(0.24966411 -6.63019e-16 0)
(0.24966411 3.5721004e-16 0)
(0.24966411 7.9120945e-18 0)
(0.24966411 2.8009604e-17 0)
(0.24966411 6.1061318e-16 0)
(0.24966411 -4.5948939e-16 0)
(0.24966411 -5.1923673e-16 0)
(0.24966411 1.104554e-15 0)
(0.24966411 -5.6721559e-16 0)
(0.24966411 -6.3927966e-16 0)
(0.24966411 3.7772988e-16 0)
(0.24966411 7.3535537e-17 0)
(0.24966411 2.4505203e-16 0)
(0.24966411 7.0533466e-16 0)
(0.24966411 -5.9987317e-17 0)
(0.24966411 -7.2752997e-16 0)
(0.24966411 -6.3597372e-16 0)
(0.24966411 -1.2232842e-16 0)
(0.24966411 4.5390085e-16 0)
(0.24966411 -4.4201068e-16 0)
(0.24966411 5.7103033e-16 0)
(0.24966411 6.5341637e-16 0)
(0.24966411 -3.0887788e-16 0)
(0.24966411 4.4581891e-16 0)
(0.24966411 -7.0591075e-17 0)
(0.24966411 -1.1286553e-15 0)
(0.24966411 4.1771831e-16 0)
(0.24966411 3.935712e-17 0)
(0.24966411 -5.4365354e-16 0)
(0.24966411 5.6268793e-16 0)
(0.24966411 1.7829669e-16 0)
(0.24966411 5.0771081e-16 0)
(0.24966411 -5.4576856e-16 0)
(0.24966411 1.0526178e-17 0)
(0.24966411 -8.7817221e-17 0)
(0.24966411 -6.4513243e-16 0)
(0.24966411 5.2571036e-16 0)
(0.24966411 7.0906284e-16 0)
(0.24966411 -5.1933289e-16 0)
(0.24966411 -1.1968573e-16 0)
(0.24966411 5.8370306e-16 0)
(0.24966411 -4.87593e-16 0)
(0.24966411 -1.1004987e-16 0)
(0.24966411 -5.6432147e-16 0)
(0.24966411 -6.3323685e-17 0)
(0.24966411 1.0840272e-16 0)
(0.24966411 1.2480023e-15 0)
(0.24966411 -1.7423175e-17 0)
(0.24966411 -6.2612784e-16 0)
(0.24966411 5.4792045e-16 0)
(0.24966411 -5.4524097e-16 0)
(0.24966411 -6.3011874e-16 0)
(0.24966411 4.8025997e-16 0)
(0.24966411 2.7362521e-17 0)
(0.24966411 1.505566e-16 0)
(0.24966411 6.8016631e-16 0)
(0.24966411 -1.1331349e-15 0)
(0.24966411 4.7058849e-16 0)
(0.24966411 -6.9876851e-17 0)
(0.24966411 -1.1566781e-16 0)
(0.24966411 2.0501472e-16 0)
(0.24966411 -6.4171948e-16 0)
(0.24966411 5.6528622e-16 0)
(0.24966411 1.4911945e-15 0)
(0.24966411 -1.1722931e-15 0)
(0.24966411 -7.9451079e-16 0)
(0.24966411 5.096555e-16 0)
(0.24966411 -4.8039233e-16 0)
(0.24966411 1.0735611e-15 0)
(0.24966411 -1.1179404e-15 0)
(0.24966411 -1.4121245e-17 0)
(0.24966411 1.3198566e-15 0)
(0.24966411 2.0410083e-16 0)
(0.24966411 -5.8466928e-16 0)
(0.24966411 -1.3908257e-16 0)
(0.24966411 -8.8037751e-17 0)
(0.24966411 4.2755179e-17 0)
(0.24966411 7.9442393e-17 0)
(0.24966411 -6.3315577e-16 0)
(0.24966411 1.1674398e-15 0)
(0.24966411 -3.8876783e-16 0)
(0.24966411 -6.9528676e-16 0)
(0.24966411 7.0352742e-16 0)
(0.24966411 6.5215223e-16 0)
(0.24966411 -6.8716415e-16 0)
(0.24966411 -4.8655699e-16 0)
(0.24966411 5.4060108e-16 0)
(0.24966411 1.5407911e-16 0)
(0.24966411 1.1157161e-15 0)
(0.24966411 6.7898331e-16 0)
(0.24966411 -1.7716774e-15 0)
(0.24966411 1.067028e-16 0)
(0.24966411 3.0372002e-16 0)
(0.24966411 -3.9324647e-15 0)
(0.73899265 -7.2711921e-15 0)
(0.73899265 -5.163271e-15 0)
(0.73899265 -2.0582804e-15 0)
(0.73899265 -8.5226418e-16 0)
(0.73899265 -2.6273935e-16 0)
(0.73899265 1.2586825e-16 0)
(0.73899265 2.0942389e-16 0)
(0.73899265 3.3392563e-16 0)
(0.73899265 3.2798175e-16 0)
(0.73899265 1.1229854e-16 0)
(0.73899265 9.2525131e-17 0)
(0.73899265 9.6532149e-17 0)
(0.73899265 1.6263586e-16 0)
(0.73899265 1.4260711e-16 0)
(0.73899265 -7.1973689e-17 0)
(0.73899265 -1.7201518e-16 0)
(0.73899265 -2.3605823e-16 0)
(0.73899265 -2.0812838e-16 0)
(0.73899265 -2.6792997e-16 0)
(0.73899265 -3.7076018e-17 0)
(0.73899265 -9.3689441e-17 0)
(0.73899265 -2.9752348e-16 0)
(0.73899265 2.4484238e-17 0)
(0.73899265 6.786978e-17 0)
(0.73899265 8.8370408e-17 0)
(0.73899265 9.7973276e-17 0)
(0.73899265 -1.0371285e-16 0)
(0.73899265 -2.8678317e-16 0)
(0.73899265 -3.0501737e-16 0)
(0.73899265 -8.4100457e-17 0)
(0.73899265 7.9637546e-17 0)
(0.73899265 2.2478428e-17 0)
(0.73899265 1.09425e-16 0)
(0.73899265 2.9721914e-16 0)
(0.73899265 -1.4143611e-16 0)
(0.73899265 -3.4939911e-17 0)
(0.73899265 4.993911e-17 0)
(0.73899265 3.9618153e-17 0)
(0.73899265 7.523395e-17 0)
(0.73899265 8.3281007e-19 0)
(0.73899265 2.61585e-16 0)
(0.73899265 -1.6588513e-16 0)
(0.73899265 -2.8481886e-17 0)
(0.73899265 2.6286419e-16 0)
(0.73899265 -2.3563907e-16 0)
(0.73899265 4.9656144e-17 0)
(0.73899265 8.3099142e-17 0)
(0.73899265 -3.4393229e-16 0)
(0.73899265 -1.6257952e-16 0)
(0.73899265 1.5692381e-16 0)
(0.73899265 -8.0886473e-17 0)
(0.73899265 -2.5006496e-16 0)
(0.73899265 -7.8829459e-16 0)
(0.73899265 -6.196942e-16 0)
(0.73899265 4.7239995e-17 0)
(0.73899265 -2.34359e-16 0)
(0.73899265 1.2556734e-16 0)
(0.73899265 -2.354013e-17 0)
(0.73899265 -1.5734155e-16 0)
(0.73899265 3.5905773e-16 0)
(0.73899265 2.2871512e-16 0)
(0.73899265 -3.313292e-17 0)
(0.73899265 2.109871e-16 0)
(0.73899265 4.6825267e-16 0)
(0.73899265 -6.0456685e-17 0)
(0.73899265 2.8781642e-16 0)
(0.73899265 -3.3413587e-16 0)
(0.73899265 -3.1080749e-16 0)
(0.73899265 5.1761395e-16 0)
(0.73899265 -2.4915074e-16 0)
(0.73899265 -2.1401025e-16 0)
(0.73899265 3.6144094e-16 0)
(0.73899265 6.8632973e-16 0)
(0.73899265 7.5257938e-17 0)
(0.73899265 -1.9254406e-16 0)
(0.73899265 7.3761631e-16 0)
(0.73899265 2.7485965e-17 0)
(0.73899265 -6.3188911e-16 0)
(0.73899265 1.4948834e-16 0)
(0.73899265 5.5538005e-16 0)
(0.73899265 2.1402793e-16 0)
(0.73899265 2.5744808e-16 0)
(0.73899265 8.0656826e-16 0)
(0.73899265 4.7324037e-17 0)
(0.73899265 -4.1671966e-16 0)
(0.73899265 8.7128342e-16 0)
(0.73899265 2.9907287e-16 0)
(0.73899265 -2.3099828e-16 0)
(0.73899265 3.268399e-16 0)
(0.73899265 2.3328676e-16 0)
(0.73899265 1.0075518e-16 0)
(0.73899265 3.4764638e-16 0)
(0.73899265 3.8680909e-16 0)
(0.73899265 1.337019e-16 0)
(0.73899265 2.7158195e-18 0)
(0.73899265 -7.70193e-16 0)
(0.73899265 -1.6251682e-16 0)
(0.73899265 3.6869977e-16 0)
(0.73899265 -4.5502509e-16 0)
(0.73899265 -4.8463654e-16 0)
(0.73899265 -7.4622781e-18 0)
(0.73899265 7.5229633e-17 0)
(0.73899265 -5.4596917e-17 0)
(0.73899265 2.3988949e-16 0)
(0.73899265 1.2831167e-17 0)
(0.73899265 -7.3941073e-16 0)
(0.73899265 -2.8428093e-16 0)
(0.73899265 3.7985694e-17 0)
(0.73899265 1.3343343e-16 0)
(0.73899265 6.0795394e-16 0)
(0.73899265 -9.0499284e-17 0)
(0.73899265 -9.3297773e-16 0)
(0.73899265 -8.532423e-17 0)
(0.73899265 1.017009e-15 0)
(0.73899265 4.0335121e-16 0)
(0.73899265 -6.9316293e-16 0)
(0.73899265 -6.59536e-16 0)
(0.73899265 2.3790848e-16 0)
(0.73899265 6.6655167e-16 0)
(0.73899265 2.0945693e-16 0)
(0.73899265 1.1599792e-17 0)
(0.73899265 1.6678205e-16 0)
(0.73899265 6.8751673e-16 0)
(0.73899265 9.355075e-17 0)
(0.73899265 -6.9021305e-16 0)
(0.73899265 2.2666117e-16 0)
(0.73899265 1.3724775e-16 0)
(0.73899265 -3.8130752e-16 0)
(0.73899265 -5.7685317e-17 0)
(0.73899265 -5.7566589e-17 0)
(0.73899265 -3.1417639e-16 0)
(0.73899265 2.6594896e-17 0)
(0.73899265 1.0566161e-15 0)
(0.73899265 -7.6355953e-16 0)
(0.73899265 -9.7511093e-16 0)
(0.73899265 4.9063928e-16 0)
(0.73899265 7.4391632e-17 0)
(0.73899265 -4.6927931e-16 0)
(0.73899265 5.2416528e-16 0)
(0.73899265 2.599451e-16 0)
(0.73899265 -9.8147208e-16 0)
(0.73899265 -4.4808756e-16 0)
(0.73899265 3.2360098e-16 0)
(0.73899265 7.8646424e-16 0)
(0.73899265 -8.1021702e-17 0)
(0.73899265 -1.4962924e-17 0)
(0.73899265 8.5821146e-16 0)
(0.73899265 -3.4984365e-16 0)
(0.73899265 -7.4594338e-16 0)
(0.73899265 7.647938e-16 0)
(0.73899265 -7.8020132e-16 0)
(0.73899265 -5.170098e-16 0)
(0.73899265 1.5294133e-15 0)
(0.73899265 -6.1922125e-16 0)
(0.73899265 -4.6264058e-16 0)
(0.73899265 5.389854e-16 0)
(0.73899265 -7.4677712e-16 0)
(0.73899265 -7.4934748e-18 0)
(0.73899265 -6.3349357e-17 0)
(0.73899265 2.272984e-16 0)
(0.73899265 1.132188e-16 0)
(0.73899265 -6.8661552e-16 0)
(0.73899265 -5.7729445e-16 0)
(0.73899265 2.0801341e-16 0)
(0.73899265 1.0792729e-16 0)
(0.73899265 1.2823296e-16 0)
(0.73899265 5.8689723e-16 0)
(0.73899265 -1.2982594e-15 0)
(0.73899265 5.925598e-16 0)
(0.73899265 1.3358404e-15 0)
(0.73899265 -1.1062826e-15 0)
(0.73899265 5.2882077e-16 0)
(0.73899265 9.6727386e-16 0)
(0.73899265 -1.3359392e-15 0)
(0.73899265 -6.6351394e-16 0)
(0.73899265 1.0674339e-16 0)
(0.73899265 1.3890113e-16 0)
(0.73899265 1.5346907e-17 0)
(0.73899265 -4.9334533e-16 0)
(0.73899265 3.0642744e-16 0)
(0.73899265 9.6739082e-17 0)
(0.73899265 -4.5901069e-16 0)
(0.73899265 -3.2774553e-16 0)
(0.73899265 -2.0361088e-16 0)
(0.73899265 1.0538913e-15 0)
(0.73899265 2.8315625e-16 0)
(0.73899265 -4.3505107e-16 0)
(0.73899265 3.4562551e-16 0)
(0.73899265 6.3129915e-17 0)
(0.73899265 2.1610639e-16 0)
(0.73899265 -4.8893861e-16 0)
(0.73899265 -6.9010173e-16 0)
(0.73899265 -2.6003497e-16 0)
(0.73899265 9.4146244e-16 0)
(0.73899265 1.1487223e-15 0)
(0.73899265 2.6124695e-16 0)
(0.73899265 6.2102007e-16 0)
(0.73899265 3.7693048e-16 0)
(0.73899265 -1.3024299e-15 0)
(0.73899265 -1.0275481e-15 0)
(0.73899265 2.1757444e-16 0)
(0.73899265 -7.310826e-16 0)
(0.73899265 1.1739267e-15 0)
(0.73899265 1.1216639e-15 0)
(0.73899265 2.728546e-17 0)
(0.73899265 4.1730513e-16 0)
(0.73899265 -5.2442969e-16 0)
(0.73899265 -6.6215085e-16 0)
(0.73899265 1.8367281e-16 0)
(0.73899265 -5.3499061e-16 0)
(0.73899265 3.2669899e-16 0)
(0.73899265 1.657411e-16 0)
(0.73899265 -5.1024134e-16 0)
(0.73899265 8.3122226e-16 0)
(0.73899265 -1.534173e-16 0)
(0.73899265 -2.7982401e-16 0)
(0.73899265 -4.0364078e-16 0)
(0.73899265 1.1748774e-16 0)
(0.73899265 1.0402438e-15 0)
(0.73899265 1.2336825e-15 0)
(0.73899265 -2.7044645e-16 0)
(0.73899265 -1.2713681e-15 0)
(0.73899265 -7.524332e-16 0)
(0.73899265 -1.4163677e-15 0)
(0.73899265 -4.8687148e-16 0)
(0.73899265 5.1816536e-16 0)
(0.73899265 4.0950632e-16 0)
(0.73899265 9.2888207e-16 0)
(0.73899265 1.4324561e-15 0)
(0.73899265 -2.4554662e-17 0)
(0.73899265 -9.3816826e-16 0)
(0.73899265 -1.1211997e-15 0)
(0.73899265 2.6378362e-16 0)
(0.73899265 1.1574838e-16 0)
(0.73899265 -5.4209721e-16 0)
(0.73899265 9.9785057e-16 0)
(0.73899265 6.6170838e-16 0)
(0.73899265 6.7155188e-16 0)
(0.73899265 -5.6387583e-16 0)
(0.73899265 6.3866626e-17 0)
(0.73899265 -3.3580902e-16 0)
(0.73899265 -1.152883e-15 0)
(0.73899265 5.3018487e-16 0)
(0.73899265 1.2812753e-15 0)
(0.73899265 -3.9076479e-16 0)
(0.73899265 -2.8050742e-16 0)
(0.73899265 6.9875488e-16 0)
(0.73899265 -5.8257989e-16 0)
(0.73899265 -2.6334493e-16 0)
(0.73899265 -6.0215492e-16 0)
(0.73899265 6.7873568e-17 0)
(0.73899265 8.155896e-16 0)
(0.73899265 1.1440038e-15 0)
(0.73899265 -6.1357209e-16 0)
(0.73899265 -4.3719137e-16 0)
(0.73899265 7.6370602e-16 0)
(0.73899265 -4.628476e-16 0)
(0.73899265 -9.0919373e-16 0)
(0.73899265 3.8643977e-16 0)
(0.73899265 -1.47441e-16 0)
(0.73899265 5.8361378e-16 0)
(0.73899265 1.375987e-15 0)
(0.73899265 -1.1618659e-15 0)
(0.73899265 3.5663169e-16 0)
(0.73899265 -4.4140073e-16 0)
(0.73899265 -3.1964571e-16 0)
(0.73899265 1.8124103e-15 0)
(0.73899265 -1.881341e-15 0)
(0.73899265 -5.3726886e-16 0)
(0.73899265 3.6458008e-15 0)
(0.73899265 -1.1388196e-15 0)
(0.73899265 -1.5533341e-15 0)
(0.73899265 3.3129522e-16 0)
(0.73899265 -7.8927991e-16 0)
(0.73899265 1.2352292e-15 0)
(0.73899265 -1.1732304e-15 0)
(0.73899265 7.0248311e-17 0)
(0.73899265 2.1481238e-15 0)
(0.73899265 1.321489e-15 0)
(0.73899265 -1.3026885e-15 0)
(0.73899265 -1.4174756e-15 0)
(0.73899265 -2.7565679e-16 0)
(0.73899265 1.0603713e-16 0)
(0.73899265 3.3493343e-16 0)
(0.73899265 -1.0253955e-15 0)
(0.73899265 1.5105998e-15 0)
(0.73899265 -1.8631187e-16 0)
(0.73899265 -1.3240084e-15 0)
(0.73899265 9.7520674e-16 0)
(0.73899265 8.9227796e-16 0)
(0.73899265 -1.0427124e-15 0)
(0.73899265 3.8195234e-16 0)
(0.73899265 -5.6170551e-16 0)
(0.73899265 -7.6478137e-16 0)
(0.73899265 3.4612791e-15 0)
(0.73899265 1.3401956e-15 0)
(0.73899265 -2.6175362e-15 0)
(0.73899265 -2.2842887e-16 0)
(0.73899265 -1.8571655e-15 0)
(0.73899265 -6.3768801e-15 0)
(1.2183222 -5.4460128e-15 0)
(1.2183222 -4.0256924e-15 0)
(1.2183222 -2.6155394e-15 0)
(1.2183222 -1.6340628e-15 0)
(1.2183222 -6.5692585e-16 0)
(1.2183222 1.2367656e-17 0)
(1.2183222 2.7364468e-16 0)
(1.2183222 5.5675706e-16 0)
(1.2183222 4.4499893e-16 0)
(1.2183222 9.266608e-17 0)
(1.2183222 -6.7448975e-19 0)
(1.2183222 3.992595e-17 0)
(1.2183222 -8.5196061e-17 0)
(1.2183222 -2.1370333e-16 0)
(1.2183222 -3.4931341e-16 0)
(1.2183222 -4.849787e-16 0)
(1.2183222 -6.4769491e-16 0)
(1.2183222 -7.0714789e-16 0)
(1.2183222 -6.1548555e-16 0)
(1.2183222 -5.3293809e-16 0)
(1.2183222 -6.0594225e-16 0)
(1.2183222 -4.7638793e-16 0)
(1.2183222 -2.355375e-17 0)
(1.2183222 -8.4110997e-17 0)
(1.2183222 -2.3677009e-17 0)
(1.2183222 1.3629746e-17 0)
(1.2183222 -1.6538129e-16 0)
(1.2183222 -1.5519386e-16 0)
(1.2183222 -5.4297826e-16 0)
(1.2183222 -4.8948139e-16 0)
(1.2183222 -1.6674423e-16 0)
(1.2183222 2.6405416e-16 0)
(1.2183222 3.1784135e-16 0)
(1.2183222 2.094628e-17 0)
(1.2183222 6.0445825e-17 0)
(1.2183222 1.127796e-16 0)
(1.2183222 -2.4907558e-16 0)
(1.2183222 1.5009876e-16 0)
(1.2183222 3.804593e-16 0)
(1.2183222 -3.1364225e-17 0)
(1.2183222 1.0340571e-16 0)
(1.2183222 3.3973529e-17 0)
(1.2183222 -3.4790292e-16 0)
(1.2183222 -1.8534762e-16 0)
(1.2183222 -1.6544743e-16 0)
(1.2183222 -9.1345768e-17 0)
(1.2183222 1.9953175e-16 0)
(1.2183222 -4.7472484e-16 0)
(1.2183222 -3.5707316e-16 0)
(1.2183222 7.2950152e-17 0)
(1.2183222 -5.8343246e-16 0)
(1.2183222 -1.1225465e-15 0)
(1.2183222 -1.2577642e-15 0)
(1.2183222 -6.6978848e-16 0)
(1.2183222 -3.6774616e-16 0)
(1.2183222 -3.6573908e-16 0)
(1.2183222 4.8032482e-16 0)
(1.2183222 -5.1777042e-17 0)
(1.2183222 -1.7648483e-16 0)
(1.2183222 3.5757895e-16 0)
(1.2183222 2.5037326e-16 0)
(1.2183222 5.1897279e-16 0)
(1.2183222 1.5798845e-16 0)
(1.2183222 7.2148445e-16 0)
(1.2183222 7.5501149e-16 0)
(1.2183222 8.3535044e-17 0)
(1.2183222 -3.7405307e-16 0)
(1.2183222 -2.3500503e-16 0)
(1.2183222 3.3311224e-17 0)
(1.2183222 1.4913639e-16 0)
(1.2183222 3.4671793e-16 0)
(1.2183222 4.9599391e-16 0)
(1.2183222 8.2621301e-16 0)
(1.2183222 3.2132282e-16 0)
(1.2183222 4.6767059e-17 0)
(1.2183222 9.9717191e-16 0)
(1.2183222 7.1564314e-16 0)
(1.2183222 -1.4828848e-16 0)
(1.2183222 1.2095287e-16 0)
(1.2183222 5.1319802e-16 0)
(1.2183222 1.1048356e-15 0)
(1.2183222 1.0763405e-15 0)
(1.2183222 7.8411071e-16 0)
(1.2183222 4.4693701e-16 0)
(1.2183222 4.9939619e-16 0)
(1.2183222 5.2026576e-16 0)
(1.2183222 1.5057152e-16 0)
(1.2183222 8.5181941e-16 0)
(1.2183222 6.110191e-16 0)
(1.2183222 2.742529e-16 0)
(1.2183222 5.7685383e-16 0)
(1.2183222 5.8450297e-16 0)
(1.2183222 7.3634939e-16 0)
(1.2183222 8.1659552e-16 0)
(1.2183222 3.3108501e-16 0)
(1.2183222 -1.1147085e-15 0)
(1.2183222 -6.1533903e-16 0)
(1.2183222 8.7872585e-16 0)
(1.2183222 -6.9735956e-16 0)
(1.2183222 -1.2849316e-15 0)
(1.2183222 4.5818309e-16 0)
(1.2183222 3.0963761e-16 0)
(1.2183222 -4.2524495e-16 0)
(1.2183222 -7.1106877e-16 0)
(1.2183222 -3.8989369e-16 0)
(1.2183222 -5.1421432e-17 0)
(1.2183222 -4.6449847e-16 0)
(1.2183222 -5.7761601e-16 0)
(1.2183222 5.1909829e-16 0)
(1.2183222 8.617428e-16 0)
(1.2183222 -2.6698442e-16 0)
(1.2183222 -5.4974105e-16 0)
(1.2183222 -3.3740642e-16 0)
(1.2183222 1.2434625e-15 0)
(1.2183222 7.1839406e-16 0)
(1.2183222 -1.5999825e-15 0)
(1.2183222 -4.6406323e-16 0)
(1.2183222 1.2977647e-15 0)
(1.2183222 7.5414485e-16 0)
(1.2183222 3.4764933e-17 0)
(1.2183222 -1.8656231e-16 0)
(1.2183222 6.4906234e-16 0)
(1.2183222 8.4545738e-16 0)
(1.2183222 -1.6163433e-16 0)
(1.2183222 -1.9381031e-16 0)
(1.2183222 2.7029547e-16 0)
(1.2183222 -7.4391283e-16 0)
(1.2183222 -2.2188122e-16 0)
(1.2183222 4.4452362e-16 0)
(1.2183222 -4.4232296e-16 0)
(1.2183222 2.3420657e-16 0)
(1.2183222 -1.9416752e-16 0)
(1.2183222 2.9188357e-16 0)
(1.2183222 -2.3915786e-16 0)
(1.2183222 -4.8561834e-16 0)
(1.2183222 -9.9755279e-17 0)
(1.2183222 -5.0552448e-16 0)
(1.2183222 -6.9833816e-16 0)
(1.2183222 3.7802595e-16 0)
(1.2183222 1.1191001e-15 0)
(1.2183222 -9.8190941e-16 0)
(1.2183222 -1.1637458e-15 0)
(1.2183222 1.1308383e-15 0)
(1.2183222 1.5030345e-15 0)
(1.2183222 -7.12832e-16 0)
(1.2183222 -4.3200115e-16 0)
(1.2183222 1.8151701e-15 0)
(1.2183222 2.2315873e-16 0)
(1.2183222 -1.7642775e-15 0)
(1.2183222 -5.8035716e-16 0)
(1.2183222 -4.9367906e-16 0)
(1.2183222 4.4614284e-16 0)
(1.2183222 9.4896763e-16 0)
(1.2183222 -5.3061589e-16 0)
(1.2183222 -3.1419941e-16 0)
(1.2183222 -9.2723023e-17 0)
(1.2183222 -5.2761146e-16 0)
(1.2183222 -4.8223688e-16 0)
(1.2183222 -1.6203858e-16 0)
(1.2183222 6.3949377e-16 0)
(1.2183222 -5.6719766e-16 0)
(1.2183222 -8.683093e-16 0)
(1.2183222 2.7817783e-16 0)
(1.2183222 -2.6734013e-16 0)
(1.2183222 -4.2693204e-16 0)
(1.2183222 2.1596199e-17 0)
(1.2183222 1.242185e-16 0)
(1.2183222 -2.8200203e-16 0)
(1.2183222 5.7481178e-16 0)
(1.2183222 9.8405413e-16 0)
(1.2183222 3.0216829e-16 0)
(1.2183222 -4.8854246e-16 0)
(1.2183222 3.5943772e-17 0)
(1.2183222 1.4143128e-16 0)
(1.2183222 -1.7487799e-15 0)
(1.2183222 -7.353989e-16 0)
(1.2183222 1.0587633e-15 0)
(1.2183222 -8.8557357e-16 0)
(1.2183222 -6.2477737e-16 0)
(1.2183222 1.4099166e-15 0)
(1.2183222 -2.3685553e-16 0)
(1.2183222 -4.62957e-16 0)
(1.2183222 -7.1355112e-16 0)
(1.2183222 -7.1454829e-16 0)
(1.2183222 1.7328743e-15 0)
(1.2183222 7.0614696e-16 0)
(1.2183222 -8.649802e-16 0)
(1.2183222 4.035585e-16 0)
(1.2183222 1.0182914e-15 0)
(1.2183222 -3.2883646e-16 0)
(1.2183222 -5.1682481e-16 0)
(1.2183222 -7.5080052e-16 0)
(1.2183222 -8.0460877e-18 0)
(1.2183222 2.0199317e-15 0)
(1.2183222 5.6410873e-16 0)
(1.2183222 1.1043498e-15 0)
(1.2183222 2.0277778e-15 0)
(1.2183222 -1.2713259e-15 0)
(1.2183222 -1.8757328e-15 0)
(1.2183222 -1.1010309e-16 0)
(1.2183222 -8.6064816e-17 0)
(1.2183222 -6.489252e-16 0)
(1.2183222 2.067703e-15 0)
(1.2183222 5.3772359e-16 0)
(1.2183222 1.1265211e-15 0)
(1.2183222 1.9020652e-15 0)
(1.2183222 -2.1759584e-15 0)
(1.2183222 -2.2661439e-15 0)
(1.2183222 -5.2422164e-16 0)
(1.2183222 7.8520383e-16 0)
(1.2183222 6.1369958e-16 0)
(1.2183222 7.8306004e-16 0)
(1.2183222 -4.6025113e-16 0)
(1.2183222 4.4087145e-16 0)
(1.2183222 -3.494954e-16 0)
(1.2183222 -5.1288241e-16 0)
(1.2183222 -1.1086918e-15 0)
(1.2183222 2.6639024e-16 0)
(1.2183222 2.6809943e-15 0)
(1.2183222 1.006439e-15 0)
(1.2183222 -1.1985693e-15 0)
(1.2183222 -1.9526531e-15 0)
(1.2183222 -7.9923012e-16 0)
(1.2183222 -1.7844854e-15 0)
(1.2183222 -3.8502514e-16 0)
(1.2183222 -1.6797907e-16 0)
(1.2183222 2.0716538e-16 0)
(1.2183222 2.6355281e-15 0)
(1.2183222 2.0804024e-15 0)
(1.2183222 -8.252824e-16 0)
(1.2183222 -5.9874175e-16 0)
(1.2183222 -8.9145421e-16 0)
(1.2183222 -1.6536722e-15 0)
(1.2183222 1.1157276e-15 0)
(1.2183222 3.1914917e-16 0)
(1.2183222 8.6505496e-16 0)
(1.2183222 1.5879112e-15 0)
(1.2183222 -8.4673593e-17 0)
(1.2183222 -6.0340136e-18 0)
(1.2183222 4.7705155e-16 0)
(1.2183222 -1.0378687e-15 0)
(1.2183222 -1.3906975e-15 0)
(1.2183222 5.1077067e-17 0)
(1.2183222 1.5080553e-15 0)
(1.2183222 7.5011951e-16 0)
(1.2183222 -1.319129e-15 0)
(1.2183222 5.8392748e-16 0)
(1.2183222 4.2947779e-16 0)
(1.2183222 -4.6886485e-16 0)
(1.2183222 9.9890653e-17 0)
(1.2183222 1.7890273e-16 0)
(1.2183222 5.7903939e-17 0)
(1.2183222 1.8277323e-15 0)
(1.2183222 -1.0237793e-16 0)
(1.2183222 -2.2408883e-15 0)
(1.2183222 1.104325e-15 0)
(1.2183222 1.1184009e-15 0)
(1.2183222 -6.0211077e-16 0)
(1.2183222 -3.765322e-16 0)
(1.2183222 -5.32827e-16 0)
(1.2183222 8.8316192e-16 0)
(1.2183222 2.3144365e-15 0)
(1.2183222 3.2243126e-16 0)
(1.2183222 -4.9475434e-16 0)
(1.2183222 -2.4541655e-15 0)
(1.2183222 -1.4393279e-15 0)
(1.2183222 2.9559753e-15 0)
(1.2183222 -6.4055187e-16 0)
(1.2183222 3.6414607e-16 0)
(1.2183222 3.9628601e-15 0)
(1.2183222 -4.8070157e-16 0)
(1.2183222 -2.1880077e-15 0)
(1.2183222 -1.2214943e-15 0)
(1.2183222 -7.9958461e-16 0)
(1.2183222 9.8397968e-16 0)
(1.2183222 -8.6835999e-16 0)
(1.2183222 -1.032669e-16 0)
(1.2183222 2.9391837e-15 0)
(1.2183222 1.4757819e-15 0)
(1.2183222 -1.9441557e-16 0)
(1.2183222 -1.6648126e-15 0)
(1.2183222 -2.979591e-15 0)
(1.2183222 -3.6580001e-16 0)
(1.2183222 1.6578668e-15 0)
(1.2183222 -1.6287366e-15 0)
(1.2183222 1.1439774e-15 0)
(1.2183222 9.8428911e-16 0)
(1.2183222 -2.3010702e-15 0)
(1.2183222 1.3719398e-15 0)
(1.2183222 -2.4472014e-16 0)
(1.2183222 -1.9899237e-15 0)
(1.2183222 2.4313189e-16 0)
(1.2183222 6.6800125e-17 0)
(1.2183222 7.8209002e-16 0)
(1.2183222 4.2866127e-15 0)
(1.2183222 5.7535346e-16 0)
(1.2183222 -2.3215213e-15 0)
(1.2183222 -1.158657e-15 0)
(1.2183222 -2.48317e-15 0)
(1.2183222 -3.5775804e-15 0)
(1.6876534 -3.1210359e-15 0)
(1.6876534 -3.3067117e-15 0)
(1.6876534 -2.9209962e-15 0)
(1.6876534 -2.2121642e-15 0)
(1.6876534 -1.1828133e-15 0)
(1.6876534 -3.7415717e-16 0)
(1.6876534 3.4409921e-16 0)
(1.6876534 5.8912832e-16 0)
(1.6876534 3.7656579e-16 0)
(1.6876534 1.011199e-16 0)
(1.6876534 -1.7749085e-16 0)
(1.6876534 -3.9278124e-16 0)
(1.6876534 -6.3797401e-16 0)
(1.6876534 -7.4002791e-16 0)
(1.6876534 -8.6002896e-16 0)
(1.6876534 -1.2516127e-15 0)
(1.6876534 -1.2739888e-15 0)
(1.6876534 -1.5177387e-15 0)
(1.6876534 -1.3615106e-15 0)
(1.6876534 -1.0792068e-15 0)
(1.6876534 -1.1510297e-15 0)
(1.6876534 -8.812154e-16 0)
(1.6876534 -3.6819407e-16 0)
(1.6876534 -4.0541063e-16 0)
(1.6876534 -2.5930235e-16 0)
(1.6876534 -1.0554776e-16 0)
(1.6876534 -1.5747578e-16 0)
(1.6876534 -2.9744292e-17 0)
(1.6876534 -7.9678719e-16 0)
(1.6876534 -9.4270128e-16 0)
(1.6876534 -3.2511729e-16 0)
(1.6876534 2.0263524e-16 0)
(1.6876534 4.7557613e-16 0)
(1.6876534 3.0002995e-16 0)
(1.6876534 1.9058414e-16 0)
(1.6876534 -9.7734041e-17 0)
(1.6876534 -4.9321243e-16 0)
(1.6876534 1.1990918e-16 0)
(1.6876534 3.964715e-16 0)
(1.6876534 5.9874088e-17 0)
(1.6876534 2.1437098e-16 0)
(1.6876534 -3.5606064e-16 0)
(1.6876534 -5.6820636e-16 0)
(1.6876534 -7.6383899e-16 0)
(1.6876534 -3.1561387e-16 0)
(1.6876534 -7.824001e-18 0)
(1.6876534 -3.1142254e-16 0)
(1.6876534 -9.1981672e-16 0)
(1.6876534 -8.9981958e-16 0)
(1.6876534 -7.3026714e-16 0)
(1.6876534 -6.8623887e-16 0)
(1.6876534 -1.2608385e-15 0)
(1.6876534 -1.8686904e-15 0)
(1.6876534 -8.4279099e-16 0)
(1.6876534 -2.4241524e-16 0)
(1.6876534 -4.2232109e-16 0)
(1.6876534 3.2153768e-16 0)
(1.6876534 1.5090622e-17 0)
(1.6876534 8.9877129e-17 0)
(1.6876534 1.7698541e-16 0)
(1.6876534 2.1791179e-16 0)
(1.6876534 7.1555769e-16 0)
(1.6876534 7.5483399e-16 0)
(1.6876534 6.4589685e-16 0)
(1.6876534 6.3218736e-16 0)
(1.6876534 5.530157e-16 0)
(1.6876534 -2.1674909e-16 0)
(1.6876534 -3.4671602e-16 0)
(1.6876534 4.6624561e-16 0)
(1.6876534 5.6613877e-16 0)
(1.6876534 2.5782343e-16 0)
(1.6876534 7.2993953e-16 0)
(1.6876534 1.7148215e-15 0)
(1.6876534 8.968862e-16 0)
(1.6876534 2.6106818e-16 0)
(1.6876534 1.7163139e-15 0)
(1.6876534 1.3823007e-15 0)
(1.6876534 2.7226209e-16 0)
(1.6876534 3.2943048e-17 0)
(1.6876534 1.3678202e-15 0)
(1.6876534 1.8857718e-15 0)
(1.6876534 1.1134777e-15 0)
(1.6876534 1.1645804e-15 0)
(1.6876534 7.5861183e-16 0)
(1.6876534 6.0013589e-16 0)
(1.6876534 1.0425493e-15 0)
(1.6876534 8.3171801e-16 0)
(1.6876534 6.7633445e-16 0)
(1.6876534 7.5235656e-16 0)
(1.6876534 1.1371374e-15 0)
(1.6876534 1.7370579e-15 0)
(1.6876534 8.9740532e-16 0)
(1.6876534 1.263369e-15 0)
(1.6876534 1.2440364e-15 0)
(1.6876534 3.3974898e-16 0)
(1.6876534 -4.5099489e-16 0)
(1.6876534 -4.8096075e-17 0)
(1.6876534 5.2003208e-16 0)
(1.6876534 -1.0841399e-15 0)
(1.6876534 -1.2268283e-15 0)
(1.6876534 3.5066489e-16 0)
(1.6876534 6.1974051e-16 0)
(1.6876534 -1.8503165e-16 0)
(1.6876534 -1.0854559e-15 0)