/*--------------------------------*- C++ -*----------------------------------*\
| =========                 |                                                 |
| \\      /  F ield         | OpenFOAM: The Open Source CFD Toolbox           |
|  \\    /   O peration     | Version:  2406                                  |
|   \\  /    A nd           | Website:  www.openfoam.com                      |
|    \\/     M anipulation  |                                                 |
\*---------------------------------------------------------------------------*/
FoamFile
{
    version     2.0;
    format      ascii;
    arch        "LSB;label=32;scalar=64";
    class       volVectorField;
    location    "13";
    object      U_0;
}
// * * * * * * * * * * * * * * * * * * * * * * * * * * * * * * * * * * * * * //

dimensions      [0 1 -1 0 0 0 0];

internalField   nonuniform List<vector> 
30000
(
(0.24966407 -2.9542291e-14 0)
(0.24966407 -1.1448801e-14 0)
(0.24966407 -4.3061678e-15 0)
(0.24966407 -2.1161108e-15 0)
(0.24966407 -1.2575574e-15 0)
(0.24966407 -7.9140631e-16 0)
(0.24966407 -5.5489641e-16 0)
(0.24966407 -3.9187387e-16 0)
(0.24966407 -3.1042809e-16 0)
(0.24966407 -2.0536914e-16 0)
(0.24966407 -1.6883264e-16 0)
(0.24966407 -1.8596846e-16 0)
(0.24966407 -1.1107369e-16 0)
(0.24966407 -3.5978473e-17 0)
(0.24966407 -9.7740032e-17 0)
(0.24966407 -1.3540625e-16 0)
(0.24966407 -1.0555624e-16 0)
(0.24966407 -1.0584144e-16 0)
(0.24966407 -1.028645e-16 0)
(0.24966407 -3.9990079e-17 0)
(0.24966407 7.2786316e-18 0)
(0.24966407 -7.8317576e-17 0)
(0.24966407 -2.0223093e-17 0)
(0.24966407 -4.8150807e-17 0)
(0.24966407 -6.3476253e-17 0)
(0.24966407 3.4793425e-18 0)
(0.24966407 -6.1105644e-17 0)
(0.24966407 -3.1370457e-18 0)
(0.24966407 -1.0777937e-16 0)
(0.24966407 -2.6618666e-17 0)
(0.24966407 7.4186548e-17 0)
(0.24966407 -1.0174443e-16 0)
(0.24966407 1.2065172e-17 0)
(0.24966407 1.5433986e-16 0)
(0.24966407 -7.0137283e-17 0)
(0.24966407 1.8141354e-18 0)
(0.24966407 -2.4511555e-17 0)
(0.24966407 -1.234398e-17 0)
(0.24966407 -1.3313622e-17 0)
(0.24966407 -7.0450612e-17 0)
(0.24966407 6.2002216e-17 0)
(0.24966407 -6.8755439e-17 0)
(0.24966407 1.3803187e-16 0)
(0.24966407 6.6066479e-17 0)
(0.24966407 -2.4044287e-16 0)
(0.24966407 9.8151339e-18 0)
(0.24966407 1.1567735e-16 0)
(0.24966407 -1.3419769e-16 0)
(0.24966407 -1.1139489e-16 0)
(0.24966407 9.4872345e-17 0)
(0.24966407 -1.5223529e-17 0)
(0.24966407 5.518777e-17 0)
(0.24966407 -2.2508983e-16 0)
(0.24966407 -2.1127935e-16 0)
(0.24966407 9.0326524e-17 0)
(0.24966407 -1.0102785e-17 0)
(0.24966407 1.6736267e-16 0)
(0.24966407 -1.3746818e-16 0)
(0.24966407 -1.6266515e-16 0)
(0.24966407 1.0971661e-16 0)
(0.24966407 1.6848326e-16 0)
(0.24966407 -1.084228e-16 0)
(0.24966407 3.1651295e-17 0)
(0.24966407 9.4913047e-17 0)
(0.24966407 -2.6320806e-16 0)
(0.24966407 7.4992105e-18 0)
(0.24966407 8.4738469e-17 0)
(0.24966407 7.8785411e-17 0)
(0.24966407 6.8484961e-17 0)
(0.24966407 -1.8123909e-16 0)
(0.24966407 -1.3977794e-16 0)
(0.24966407 2.952132e-17 0)
(0.24966407 3.3571056e-16 0)
(0.24966407 -1.3110441e-16 0)
(0.24966407 -2.0478303e-16 0)
(0.24966407 3.3594582e-16 0)
(0.24966407 4.7025979e-17 0)
(0.24966407 -3.0173005e-16 0)
(0.24966407 -2.7105743e-17 0)
(0.24966407 1.5649762e-16 0)
(0.24966407 3.2561432e-17 0)
(0.24966407 1.8838384e-17 0)
(0.24966407 2.4285154e-17 0)
(0.24966407 1.0814781e-16 0)
(0.24966407 -2.8350175e-16 0)
(0.24966407 1.7663457e-16 0)
(0.24966407 2.7408888e-16 0)
(0.24966407 -2.1313481e-16 0)
(0.24966407 -2.080561e-17 0)
(0.24966407 -1.4679014e-16 0)
(0.24966407 3.6473734e-17 0)
(0.24966407 3.2019131e-16 0)
(0.24966407 -7.4738887e-17 0)
(0.24966407 -3.0911936e-17 0)
(0.24966407 7.5694853e-17 0)
(0.24966407 -4.9724949e-16 0)
(0.24966407 1.1394304e-16 0)
(0.24966407 3.0381468e-16 0)
(0.24966407 -1.9805435e-16 0)
(0.24966407 -7.7027355e-17 0)
(0.24966407 1.4596798e-17 0)
(0.24966407 2.7377834e-16 0)
(0.24966407 -3.0449232e-16 0)
(0.24966407 -2.9300023e-16 0)
(0.24966407 5.186956e-16 0)
(0.24966407 -2.4438982e-16 0)
(0.24966407 -3.1882783e-16 0)
(0.24966407 1.668498e-16 0)
(0.24966407 5.578913e-17 0)
(0.24966407 3.3233853e-16 0)
(0.24966407 -2.8381271e-16 0)
(0.24966407 -3.3594064e-16 0)
(0.24966407 2.3258899e-16 0)
(0.24966407 1.5778749e-16 0)
(0.24966407 3.4124067e-16 0)
(0.24966407 -1.2967895e-16 0)
(0.24966407 -6.5361863e-16 0)
(0.24966407 5.5485708e-17 0)
(0.24966407 3.3226023e-16 0)
(0.24966407 2.1450259e-17 0)
(0.24966407 -3.2441505e-17 0)
(0.24966407 -7.8448935e-18 0)
(0.24966407 3.459951e-16 0)
(0.24966407 -9.1797317e-18 0)
(0.24966407 -5.8900395e-16 0)
(0.24966407 2.7791225e-16 0)
(0.24966407 2.3373672e-16 0)
(0.24966407 -3.1444285e-16 0)
(0.24966407 -9.5371469e-18 0)
(0.24966407 9.5876681e-18 0)
(0.24966407 -3.0065123e-16 0)
(0.24966407 -4.5801493e-17 0)
(0.24966407 3.3500377e-16 0)
(0.24966407 -1.830488e-17 0)
(0.24966407 -3.6728274e-17 0)
(0.24966407 4.9253535e-17 0)
(0.24966407 2.3566044e-16 0)
(0.24966407 -3.133663e-16 0)
(0.24966407 6.0111416e-17 0)
(0.24966407 3.3225372e-16 0)
(0.24966407 -3.6868402e-16 0)
(0.24966407 -3.5478341e-16 0)
(0.24966407 1.7303775e-17 0)
(0.24966407 3.6063404e-16 0)
(0.24966407 -1.5986826e-17 0)
(0.24966407 -4.687156e-18 0)
(0.24966407 4.1054253e-16 0)
(0.24966407 -3.1163771e-16 0)
(0.24966407 -3.9384877e-16 0)
(0.24966407 2.953448e-16 0)
(0.24966407 -3.072887e-17 0)
(0.24966407 2.4703843e-18 0)
(0.24966407 4.5816164e-16 0)
(0.24966407 -3.3786799e-16 0)
(0.24966407 -6.0898217e-17 0)
(0.24966407 2.8353582e-16 0)
(0.24966407 -6.3377338e-16 0)
(0.24966407 -3.0403304e-16 0)
(0.24966407 6.0662796e-16 0)
(0.24966407 5.7288615e-16 0)
(0.24966407 -4.8199548e-16 0)
(0.24966407 -1.0817717e-16 0)
(0.24966407 -2.5549596e-17 0)
(0.24966407 2.4731022e-18 0)
(0.24966407 2.6121911e-18 0)
(0.24966407 -3.8295113e-18 0)
(0.24966407 2.8077444e-17 0)
(0.24966407 -5.5408102e-16 0)
(0.24966407 8.670804e-16 0)
(0.24966407 1.2728378e-16 0)
(0.24966407 -9.0468175e-16 0)
(0.24966407 7.4961143e-16 0)
(0.24966407 4.3374212e-16 0)
(0.24966407 -8.2216672e-16 0)
(0.24966407 1.1732358e-16 0)
(0.24966407 3.1823624e-18 0)
(0.24966407 3.2068855e-17 0)
(0.24966407 -5.1629806e-17 0)
(0.24966407 -1.8861878e-17 0)
(0.24966407 3.1242331e-16 0)
(0.24966407 -5.0870845e-16 0)
(0.24966407 -6.1387395e-17 0)
(0.24966407 2.261264e-16 0)
(0.24966407 -2.5888382e-16 0)
(0.24966407 6.1909469e-16 0)
(0.24966407 3.3439777e-17 0)
(0.24966407 -5.8161663e-16 0)
(0.24966407 5.3905254e-16 0)
(0.24966407 8.837243e-17 0)
(0.24966407 -2.9692091e-16 0)
(0.24966407 -3.603786e-17 0)
(0.24966407 -9.1570993e-17 0)
(0.24966407 -5.39627e-16 0)
(0.24966407 3.606963e-16 0)
(0.24966407 6.0202863e-16 0)
(0.24966407 -1.9933582e-16 0)
(0.24966407 1.5115268e-16 0)
(0.24966407 4.6026781e-16 0)
(0.24966407 -6.8485405e-16 0)
(0.24966407 -6.0144711e-16 0)
(0.24966407 5.1449873e-16 0)
(0.24966407 -1.0152154e-16 0)
(0.24966407 1.1229971e-16 0)
(0.24966407 1.3560917e-16 0)
(0.24966407 5.2019395e-16 0)
(0.24966407 -4.6444643e-16 0)
(0.24966407 -6.5780782e-16 0)
(0.24966407 3.6877372e-16 0)
(0.24966407 1.966157e-17 0)
(0.24966407 1.6190521e-17 0)
(0.24966407 5.7968148e-16 0)
(0.24966407 -4.5408192e-16 0)
(0.24966407 -5.4906303e-16 0)
(0.24966407 1.0943519e-15 0)
(0.24966407 -5.8369581e-16 0)
(0.24966407 -6.8254314e-16 0)
(0.24966407 3.6957001e-16 0)
(0.24966407 9.1141713e-17 0)
(0.24966407 2.233705e-16 0)
(0.24966407 6.7863573e-16 0)
(0.24966407 -5.6897299e-17 0)
(0.24966407 -7.2340493e-16 0)
(0.24966407 -6.1062856e-16 0)
(0.24966407 -1.0976878e-16 0)
(0.24966407 4.4249945e-16 0)
(0.24966407 -4.3541059e-16 0)
(0.24966407 5.6894833e-16 0)
(0.24966407 6.5331868e-16 0)
(0.24966407 -3.3168392e-16 0)
(0.24966407 4.3192531e-16 0)
(0.24966407 -7.1724322e-17 0)
(0.24966407 -1.1178126e-15 0)
(0.24966407 4.3802167e-16 0)
(0.24966407 3.8712947e-17 0)
(0.24966407 -5.4769881e-16 0)
(0.24966407 5.730465e-16 0)
(0.24966407 1.727857e-16 0)
(0.24966407 5.1558014e-16 0)
(0.24966407 -5.4382392e-16 0)
(0.24966407 2.3695326e-17 0)
(0.24966407 -1.0704391e-16 0)
(0.24966407 -6.6756234e-16 0)
(0.24966407 5.2549939e-16 0)
(0.24966407 6.8335071e-16 0)
(0.24966407 -5.1361665e-16 0)
(0.24966407 -1.076754e-16 0)
(0.24966407 5.7793642e-16 0)
(0.24966407 -5.1282517e-16 0)
(0.24966407 -1.3778137e-16 0)
(0.24966407 -5.7631986e-16 0)
(0.24966407 -7.9013613e-17 0)
(0.24966407 1.0401139e-16 0)
(0.24966407 1.2254836e-15 0)
(0.24966407 -1.0099959e-17 0)
(0.24966407 -6.2770173e-16 0)
(0.24966407 5.4388272e-16 0)
(0.24966407 -5.6133768e-16 0)
(0.24966407 -6.7220878e-16 0)
(0.24966407 4.4810701e-16 0)
(0.24966407 4.0246558e-18 0)
(0.24966407 1.3597648e-16 0)
(0.24966407 6.5865696e-16 0)
(0.24966407 -1.1342176e-15 0)
(0.24966407 4.3483265e-16 0)
(0.24966407 -9.7887117e-17 0)
(0.24966407 -1.6869746e-16 0)
(0.24966407 1.8421906e-16 0)
(0.24966407 -6.645022e-16 0)
(0.24966407 5.2903312e-16 0)
(0.24966407 1.4674587e-15 0)
(0.24966407 -1.2071723e-15 0)
(0.24966407 -8.3156726e-16 0)
(0.24966407 4.7589694e-16 0)
(0.24966407 -5.1335714e-16 0)
(0.24966407 1.0517417e-15 0)
(0.24966407 -1.1468945e-15 0)
(0.24966407 -7.463562e-17 0)
(0.24966407 1.2600252e-15 0)
(0.24966407 1.7284362e-16 0)
(0.24966407 -6.5691436e-16 0)
(0.24966407 -2.2430784e-16 0)
(0.24966407 -1.8615834e-16 0)
(0.24966407 -2.4217451e-17 0)
(0.24966407 -2.2877988e-17 0)
(0.24966407 -7.371916e-16 0)
(0.24966407 1.0521498e-15 0)
(0.24966407 -5.3848618e-16 0)
(0.24966407 -8.725444e-16 0)
(0.24966407 5.3759473e-16 0)
(0.24966407 4.5472821e-16 0)
(0.24966407 -9.794687e-16 0)
(0.24966407 -7.7940269e-16 0)
(0.24966407 1.8406049e-16 0)
(0.24966407 -3.2451261e-16 0)
(0.24966407 4.6971218e-16 0)
(0.24966407 -2.4182764e-16 0)
(0.24966407 -3.1560674e-15 0)
(0.24966407 -2.115416e-15 0)
(0.24966407 -3.7965903e-15 0)
(0.24966407 -1.2068377e-14 0)
(0.73899253 -4.472838e-14 0)
(0.73899253 -2.2286495e-14 0)
(0.73899253 -1.1762622e-14 0)
(0.73899253 -6.6063886e-15 0)
(0.73899253 -3.9296142e-15 0)
(0.73899253 -2.4128707e-15 0)
(0.73899253 -1.6606936e-15 0)
(0.73899253 -1.0537927e-15 0)
(0.73899253 -8.0885812e-16 0)
(0.73899253 -8.3160684e-16 0)
(0.73899253 -6.1208834e-16 0)
(0.73899253 -4.5816254e-16 0)
(0.73899253 -3.3530326e-16 0)
(0.73899253 -2.813337e-16 0)
(0.73899253 -4.5079542e-16 0)
(0.73899253 -4.8250251e-16 0)
(0.73899253 -5.2272699e-16 0)
(0.73899253 -5.4071255e-16 0)
(0.73899253 -5.3058818e-16 0)
(0.73899253 -2.6976718e-16 0)
(0.73899253 -3.2437282e-16 0)
(0.73899253 -4.6546949e-16 0)
(0.73899253 -4.7973276e-17 0)
(0.73899253 -5.0813733e-17 0)
(0.73899253 -6.2052691e-17 0)
(0.73899253 -1.5932386e-17 0)
(0.73899253 -1.7201567e-16 0)
(0.73899253 -3.9174027e-16 0)
(0.73899253 -4.6534702e-16 0)
(0.73899253 -1.552461e-16 0)
(0.73899253 2.1590005e-17 0)
(0.73899253 -7.9462306e-17 0)
(0.73899253 4.841747e-17 0)
(0.73899253 2.8969485e-16 0)
(0.73899253 -1.4493759e-16 0)
(0.73899253 -1.1461082e-16 0)
(0.73899253 -1.2142192e-17 0)
(0.73899253 -8.7297675e-18 0)
(0.73899253 7.5609157e-17 0)
(0.73899253 -2.2191794e-17 0)
(0.73899253 2.0530652e-16 0)
(0.73899253 -2.1923135e-16 0)
(0.73899253 -6.4402247e-17 0)
(0.73899253 2.1369262e-16 0)
(0.73899253 -2.5916959e-16 0)
(0.73899253 5.9321388e-17 0)
(0.73899253 3.1996204e-17 0)
(0.73899253 -3.8628435e-16 0)
(0.73899253 -1.9821233e-16 0)
(0.73899253 1.2160531e-16 0)
(0.73899253 -1.3882308e-16 0)
(0.73899253 -3.3768588e-16 0)
(0.73899253 -8.3265866e-16 0)
(0.73899253 -6.3709674e-16 0)
(0.73899253 4.4277726e-17 0)
(0.73899253 -2.9213893e-16 0)
(0.73899253 1.0927707e-16 0)
(0.73899253 -6.3575799e-17 0)
(0.73899253 -1.8637202e-16 0)
(0.73899253 2.9045012e-16 0)
(0.73899253 2.7612763e-16 0)
(0.73899253 -2.0919107e-17 0)
(0.73899253 2.3220952e-16 0)
(0.73899253 4.4023618e-16 0)
(0.73899253 -6.2658475e-17 0)
(0.73899253 2.031742e-16 0)
(0.73899253 -4.0172671e-16 0)
(0.73899253 -3.3669724e-16 0)
(0.73899253 5.038757e-16 0)
(0.73899253 -2.7485779e-16 0)
(0.73899253 -2.8793909e-16 0)
(0.73899253 2.8717194e-16 0)
(0.73899253 6.9095556e-16 0)
(0.73899253 1.3408088e-16 0)
(0.73899253 -1.3041724e-16 0)
(0.73899253 7.987649e-16 0)
(0.73899253 7.11358e-17 0)
(0.73899253 -5.7092416e-16 0)
(0.73899253 1.6255351e-16 0)
(0.73899253 5.7319304e-16 0)
(0.73899253 1.9777784e-16 0)
(0.73899253 2.526024e-16 0)
(0.73899253 7.2693138e-16 0)
(0.73899253 2.5955089e-18 0)
(0.73899253 -4.2834951e-16 0)
(0.73899253 8.0298399e-16 0)
(0.73899253 2.7157151e-16 0)
(0.73899253 -2.5326659e-16 0)
(0.73899253 2.9496941e-16 0)
(0.73899253 2.1278131e-16 0)
(0.73899253 1.8647613e-16 0)
(0.73899253 3.9105587e-16 0)
(0.73899253 3.696398e-16 0)
(0.73899253 1.1115801e-16 0)
(0.73899253 -1.7738633e-17 0)
(0.73899253 -8.1466736e-16 0)
(0.73899253 -1.5703954e-16 0)
(0.73899253 3.8954278e-16 0)
(0.73899253 -4.5432015e-16 0)
(0.73899253 -4.8341317e-16 0)
(0.73899253 -4.0283821e-17 0)
(0.73899253 1.1361656e-17 0)
(0.73899253 -1.1759506e-16 0)
(0.73899253 1.5874134e-16 0)
(0.73899253 -4.3899623e-18 0)
(0.73899253 -8.0662345e-16 0)
(0.73899253 -3.9509192e-16 0)
(0.73899253 -3.5692408e-17 0)
(0.73899253 1.5326658e-16 0)
(0.73899253 6.1692894e-16 0)
(0.73899253 -7.3331645e-17 0)
(0.73899253 -8.6639273e-16 0)
(0.73899253 -7.062369e-17 0)
(0.73899253 1.0260304e-15 0)
(0.73899253 3.7476847e-16 0)
(0.73899253 -7.4121138e-16 0)
(0.73899253 -7.1542958e-16 0)
(0.73899253 2.3289802e-16 0)
(0.73899253 6.6639202e-16 0)
(0.73899253 1.6465237e-16 0)
(0.73899253 2.6756049e-18 0)
(0.73899253 9.0929918e-17 0)
(0.73899253 6.4318307e-16 0)
(0.73899253 5.2382656e-17 0)
(0.73899253 -7.4790917e-16 0)
(0.73899253 1.9449763e-16 0)
(0.73899253 1.1808844e-16 0)
(0.73899253 -4.3364558e-16 0)
(0.73899253 -3.3880114e-17 0)
(0.73899253 -1.0164264e-16 0)
(0.73899253 -3.5652061e-16 0)
(0.73899253 1.3682057e-17 0)
(0.73899253 1.0405584e-15 0)
(0.73899253 -7.2114628e-16 0)
(0.73899253 -9.293951e-16 0)
(0.73899253 4.9855532e-16 0)
(0.73899253 1.0385008e-16 0)
(0.73899253 -4.969293e-16 0)
(0.73899253 5.2168168e-16 0)
(0.73899253 2.2695578e-16 0)
(0.73899253 -9.6559023e-16 0)
(0.73899253 -4.4144933e-16 0)
(0.73899253 2.6425698e-16 0)
(0.73899253 7.4860729e-16 0)
(0.73899253 -1.1782534e-16 0)
(0.73899253 1.0121272e-17 0)
(0.73899253 8.9396792e-16 0)
(0.73899253 -2.893099e-16 0)
(0.73899253 -7.6679018e-16 0)
(0.73899253 6.7817191e-16 0)
(0.73899253 -7.8253016e-16 0)
(0.73899253 -5.0845666e-16 0)
(0.73899253 1.5291571e-15 0)
(0.73899253 -6.1763815e-16 0)
(0.73899253 -4.1473763e-16 0)
(0.73899253 5.5748372e-16 0)
(0.73899253 -7.672524e-16 0)
(0.73899253 -1.8050149e-17 0)
(0.73899253 -1.5263853e-17 0)
(0.73899253 2.7136639e-16 0)
(0.73899253 1.6176726e-16 0)
(0.73899253 -6.5308304e-16 0)
(0.73899253 -5.6024654e-16 0)
(0.73899253 1.9665218e-16 0)
(0.73899253 7.4396049e-17 0)
(0.73899253 1.4433108e-16 0)
(0.73899253 5.7896086e-16 0)
(0.73899253 -1.3181896e-15 0)
(0.73899253 5.9275438e-16 0)
(0.73899253 1.3369494e-15 0)
(0.73899253 -1.1544215e-15 0)
(0.73899253 5.3545716e-16 0)
(0.73899253 1.040937e-15 0)
(0.73899253 -1.3120764e-15 0)
(0.73899253 -6.314025e-16 0)
(0.73899253 1.1120139e-16 0)
(0.73899253 1.7473873e-16 0)
(0.73899253 -2.5703526e-17 0)
(0.73899253 -4.8876794e-16 0)
(0.73899253 3.2357996e-16 0)
(0.73899253 7.2958459e-17 0)
(0.73899253 -4.3871617e-16 0)
(0.73899253 -2.6584443e-16 0)
(0.73899253 -1.8125661e-16 0)
(0.73899253 1.0516859e-15 0)
(0.73899253 2.2711479e-16 0)
(0.73899253 -4.7387287e-16 0)
(0.73899253 3.3441622e-16 0)
(0.73899253 6.4192965e-17 0)
(0.73899253 1.5596707e-16 0)
(0.73899253 -5.0729963e-16 0)
(0.73899253 -6.5534631e-16 0)
(0.73899253 -2.6925671e-16 0)
(0.73899253 9.1124511e-16 0)
(0.73899253 1.1243279e-15 0)
(0.73899253 2.0572689e-16 0)
(0.73899253 5.2186466e-16 0)
(0.73899253 3.3649322e-16 0)
(0.73899253 -1.2662319e-15 0)
(0.73899253 -1.0107032e-15 0)
(0.73899253 2.3770138e-16 0)
(0.73899253 -7.3928605e-16 0)
(0.73899253 1.1691391e-15 0)
(0.73899253 1.1109604e-15 0)
(0.73899253 -2.2028202e-17 0)
(0.73899253 3.648817e-16 0)
(0.73899253 -5.4134587e-16 0)
(0.73899253 -6.5016137e-16 0)
(0.73899253 1.5543732e-16 0)
(0.73899253 -5.4312851e-16 0)
(0.73899253 2.7233942e-16 0)
(0.73899253 1.1694648e-16 0)
(0.73899253 -5.5432513e-16 0)
(0.73899253 8.2453607e-16 0)
(0.73899253 -1.9962772e-16 0)
(0.73899253 -3.803119e-16 0)
(0.73899253 -3.9057782e-16 0)
(0.73899253 1.2194475e-16 0)
(0.73899253 9.7647328e-16 0)
(0.73899253 1.1634865e-15 0)
(0.73899253 -2.8210544e-16 0)
(0.73899253 -1.2957431e-15 0)
(0.73899253 -7.116464e-16 0)
(0.73899253 -1.3231253e-15 0)
(0.73899253 -4.0577484e-16 0)
(0.73899253 4.8418711e-16 0)
(0.73899253 3.2374884e-16 0)
(0.73899253 8.8149599e-16 0)
(0.73899253 1.3962897e-15 0)
(0.73899253 -6.1802614e-17 0)
(0.73899253 -9.5841327e-16 0)
(0.73899253 -1.0624815e-15 0)
(0.73899253 3.0860477e-16 0)
(0.73899253 1.4720354e-16 0)
(0.73899253 -6.0059683e-16 0)
(0.73899253 9.9146775e-16 0)
(0.73899253 6.748999e-16 0)
(0.73899253 6.9415089e-16 0)
(0.73899253 -5.2618853e-16 0)
(0.73899253 9.288212e-17 0)
(0.73899253 -3.8352805e-16 0)
(0.73899253 -1.1781979e-15 0)
(0.73899253 5.1946321e-16 0)
(0.73899253 1.2475893e-15 0)
(0.73899253 -4.6152915e-16 0)
(0.73899253 -2.8334323e-16 0)
(0.73899253 6.6716222e-16 0)
(0.73899253 -6.2664955e-16 0)
(0.73899253 -3.1033483e-16 0)
(0.73899253 -6.7607182e-16 0)
(0.73899253 -4.5498804e-18 0)
(0.73899253 7.8727172e-16 0)
(0.73899253 1.1103403e-15 0)
(0.73899253 -6.6276222e-16 0)
(0.73899253 -4.6473525e-16 0)
(0.73899253 7.6302305e-16 0)
(0.73899253 -5.0956253e-16 0)
(0.73899253 -1.0293397e-15 0)
(0.73899253 2.9882613e-16 0)
(0.73899253 -1.8793231e-16 0)
(0.73899253 4.9123665e-16 0)
(0.73899253 1.3091626e-15 0)
(0.73899253 -1.2082389e-15 0)
(0.73899253 3.3799739e-16 0)
(0.73899253 -5.7290763e-16 0)
(0.73899253 -4.585606e-16 0)
(0.73899253 1.7015354e-15 0)
(0.73899253 -1.9827145e-15 0)
(0.73899253 -6.3150598e-16 0)
(0.73899253 3.5752341e-15 0)
(0.73899253 -1.2336968e-15 0)
(0.73899253 -1.6742667e-15 0)
(0.73899253 2.4599452e-16 0)
(0.73899253 -8.6953301e-16 0)
(0.73899253 1.1393733e-15 0)
(0.73899253 -1.2866065e-15 0)
(0.73899253 -8.043658e-17 0)
(0.73899253 1.9863731e-15 0)
(0.73899253 1.159141e-15 0)
(0.73899253 -1.5456403e-15 0)
(0.73899253 -1.6571358e-15 0)
(0.73899253 -4.9222279e-16 0)
(0.73899253 -2.9157954e-17 0)
(0.73899253 9.6501691e-17 0)
(0.73899253 -1.3537288e-15 0)
(0.73899253 1.1026685e-15 0)
(0.73899253 -6.4950246e-16 0)
(0.73899253 -1.8287749e-15 0)
(0.73899253 4.6231431e-16 0)
(0.73899253 2.615924e-16 0)
(0.73899253 -1.8305606e-15 0)
(0.73899253 -5.0021305e-16 0)
(0.73899253 -1.6084825e-15 0)
(0.73899253 -2.1257092e-15 0)
(0.73899253 1.6435968e-15 0)
(0.73899253 -1.1993822e-15 0)
(0.73899253 -6.3215728e-15 0)
(0.73899253 -6.0014765e-15 0)
(0.73899253 -1.1649342e-14 0)
(0.73899253 -2.3689052e-14 0)
(1.218322 -2.5263781e-14 0)
(1.218322 -1.9201187e-14 0)
(1.218322 -1.2937147e-14 0)
(1.218322 -8.5948057e-15 0)
(1.218322 -5.5649333e-15 0)
(1.218322 -3.5849284e-15 0)
(1.218322 -2.4782404e-15 0)
(1.218322 -1.6071556e-15 0)
(1.218322 -1.2865996e-15 0)
(1.218322 -1.3372992e-15 0)
(1.218322 -1.1782194e-15 0)
(1.218322 -8.6950153e-16 0)
(1.218322 -8.4086585e-16 0)
(1.218322 -8.5450919e-16 0)
(1.218322 -9.3979552e-16 0)
(1.218322 -1.0635183e-15 0)
(1.218322 -1.1276437e-15 0)
(1.218322 -1.1866932e-15 0)
(1.218322 -1.0178655e-15 0)
(1.218322 -9.0271993e-16 0)
(1.218322 -9.9193981e-16 0)
(1.218322 -6.7244915e-16 0)
(1.218322 -2.5472635e-16 0)
(1.218322 -1.5780079e-16 0)
(1.218322 -1.0456567e-16 0)
(1.218322 -1.8023536e-16 0)
(1.218322 -4.0490419e-16 0)
(1.218322 -3.8427919e-16 0)
(1.218322 -6.8867611e-16 0)
(1.218322 -5.5093707e-16 0)
(1.218322 -3.1779205e-16 0)
(1.218322 8.2466527e-17 0)
(1.218322 2.0231901e-16 0)
(1.218322 -5.0362435e-17 0)
(1.218322 3.6294474e-17 0)
(1.218322 1.1260856e-18 0)
(1.218322 -4.1709743e-16 0)
(1.218322 3.1927218e-17 0)
(1.218322 3.6527532e-16 0)
(1.218322 -1.0225739e-16 0)
(1.218322 2.2784811e-17 0)
(1.218322 -1.0451421e-16 0)
(1.218322 -3.4908441e-16 0)
(1.218322 -2.4975757e-16 0)
(1.218322 -1.7568399e-16 0)
(1.218322 -1.0541187e-16 0)
(1.218322 1.1517323e-16 0)
(1.218322 -5.2174081e-16 0)
(1.218322 -4.0341454e-16 0)
(1.218322 4.1689671e-17 0)
(1.218322 -6.1459875e-16 0)
(1.218322 -1.2179366e-15 0)
(1.218322 -1.3213881e-15 0)
(1.218322 -7.6858159e-16 0)
(1.218322 -2.8895027e-16 0)
(1.218322 -3.5190441e-16 0)
(1.218322 4.8248409e-16 0)
(1.218322 -1.6153205e-16 0)
(1.218322 -2.8137285e-16 0)
(1.218322 3.6822509e-16 0)
(1.218322 2.5915808e-16 0)
(1.218322 4.9152044e-16 0)
(1.218322 1.6361053e-16 0)
(1.218322 7.5173613e-16 0)
(1.218322 6.9089736e-16 0)
(1.218322 -3.482281e-17 0)
(1.218322 -4.6482564e-16 0)
(1.218322 -2.9222274e-16 0)
(1.218322 -1.797909e-17 0)
(1.218322 1.3464585e-16 0)
(1.218322 2.7681825e-16 0)
(1.218322 3.6026753e-16 0)
(1.218322 7.8518556e-16 0)
(1.218322 4.006043e-16 0)
(1.218322 1.1337622e-16 0)
(1.218322 1.0743639e-15 0)
(1.218322 7.1970255e-16 0)
(1.218322 -1.7487125e-16 0)
(1.218322 3.3140595e-17 0)
(1.218322 4.4517981e-16 0)
(1.218322 1.1068374e-15 0)
(1.218322 1.037462e-15 0)
(1.218322 6.6451089e-16 0)
(1.218322 3.4948214e-16 0)
(1.218322 3.5645082e-16 0)
(1.218322 4.1939958e-16 0)
(1.218322 7.4697412e-17 0)
(1.218322 8.2210603e-16 0)
(1.218322 5.6031999e-16 0)
(1.218322 2.6574712e-16 0)
(1.218322 6.7140044e-16 0)
(1.218322 6.6423048e-16 0)
(1.218322 7.2381353e-16 0)
(1.218322 8.9816967e-16 0)
(1.218322 2.4223864e-16 0)
(1.218322 -1.2167288e-15 0)
(1.218322 -5.8601936e-16 0)
(1.218322 9.1547293e-16 0)
(1.218322 -7.377126e-16 0)
(1.218322 -1.4093479e-15 0)
(1.218322 3.8099499e-16 0)
(1.218322 9.1812027e-17 0)
(1.218322 -5.3471503e-16 0)
(1.218322 -7.8220154e-16 0)
(1.218322 -4.368443e-16 0)
(1.218322 -1.3186392e-16 0)
(1.218322 -5.0986422e-16 0)
(1.218322 -7.2672025e-16 0)
(1.218322 5.5357159e-16 0)
(1.218322 8.4090901e-16 0)
(1.218322 -2.5881506e-16 0)
(1.218322 -5.5225283e-16 0)
(1.218322 -3.2974929e-16 0)
(1.218322 1.248269e-15 0)
(1.218322 7.4390949e-16 0)
(1.218322 -1.591156e-15 0)
(1.218322 -5.0099735e-16 0)
(1.218322 1.3004276e-15 0)
(1.218322 7.9265686e-16 0)
(1.218322 3.6412446e-17 0)
(1.218322 -2.4194807e-16 0)
(1.218322 5.2769603e-16 0)
(1.218322 7.8641648e-16 0)
(1.218322 -2.0425818e-16 0)
(1.218322 -2.6669108e-16 0)
(1.218322 1.8255198e-16 0)
(1.218322 -8.1436521e-16 0)
(1.218322 -3.120817e-16 0)
(1.218322 3.7819677e-16 0)
(1.218322 -4.4501078e-16 0)
(1.218322 1.6348817e-16 0)
(1.218322 -2.229552e-16 0)
(1.218322 2.5312957e-16 0)
(1.218322 -2.6120095e-16 0)
(1.218322 -5.2437791e-16 0)
(1.218322 -1.1360943e-16 0)
(1.218322 -5.752801e-16 0)
(1.218322 -7.4053063e-16 0)
(1.218322 4.5454806e-16 0)
(1.218322 1.12616e-15 0)
(1.218322 -9.968083e-16 0)
(1.218322 -1.2270021e-15 0)
(1.218322 1.0679023e-15 0)
(1.218322 1.4487574e-15 0)
(1.218322 -7.6136205e-16 0)
(1.218322 -4.6331652e-16 0)
(1.218322 1.7799304e-15 0)
(1.218322 1.7702931e-16 0)
(1.218322 -1.8415059e-15 0)
(1.218322 -6.2346845e-16 0)
(1.218322 -4.8149314e-16 0)
(1.218322 4.2837627e-16 0)
(1.218322 9.7926024e-16 0)
(1.218322 -4.2051433e-16 0)
(1.218322 -2.476354e-16 0)
(1.218322 -1.1051892e-16 0)
(1.218322 -5.301361e-16 0)
(1.218322 -4.8135941e-16 0)
(1.218322 -1.4984e-16 0)
(1.218322 7.0077962e-16 0)
(1.218322 -5.1737549e-16 0)
(1.218322 -8.2406916e-16 0)
(1.218322 2.9026529e-16 0)
(1.218322 -2.1790536e-16 0)
(1.218322 -4.3298412e-16 0)
(1.218322 4.1808428e-17 0)
(1.218322 1.1447947e-16 0)
(1.218322 -3.0968339e-16 0)
(1.218322 5.5347962e-16 0)
(1.218322 9.9932044e-16 0)
(1.218322 2.5223219e-16 0)
(1.218322 -5.2135917e-16 0)
(1.218322 2.060069e-17 0)
(1.218322 2.1127174e-16 0)
(1.218322 -1.6715379e-15 0)
(1.218322 -7.1530153e-16 0)
(1.218322 1.1672103e-15 0)
(1.218322 -8.9379062e-16 0)
(1.218322 -7.018771e-16 0)
(1.218322 1.4117186e-15 0)
(1.218322 -1.8976598e-16 0)
(1.218322 -3.5965763e-16 0)
(1.218322 -7.0194485e-16 0)
(1.218322 -6.8691161e-16 0)
(1.218322 1.7262016e-15 0)
(1.218322 6.3179e-16 0)
(1.218322 -9.2492375e-16 0)
(1.218322 4.1592684e-16 0)
(1.218322 1.002102e-15 0)
(1.218322 -3.7958778e-16 0)
(1.218322 -6.0768723e-16 0)
(1.218322 -8.0703771e-16 0)
(1.218322 -6.8498334e-17 0)
(1.218322 1.9981989e-15 0)
(1.218322 5.5849402e-16 0)
(1.218322 1.0379753e-15 0)
(1.218322 1.8890113e-15 0)
(1.218322 -1.3801879e-15 0)
(1.218322 -1.892774e-15 0)
(1.218322 -6.7648228e-17 0)
(1.218322 -1.4947815e-16 0)
(1.218322 -6.71323e-16 0)
(1.218322 1.9853628e-15 0)
(1.218322 5.2933388e-16 0)
(1.218322 1.0275052e-15 0)
(1.218322 1.8360587e-15 0)
(1.218322 -2.1854469e-15 0)
(1.218322 -2.3352464e-15 0)
(1.218322 -5.863444e-16 0)
(1.218322 6.9833995e-16 0)
(1.218322 5.842928e-16 0)
(1.218322 6.7668984e-16 0)
(1.218322 -5.4045663e-16 0)
(1.218322 4.0121881e-16 0)
(1.218322 -4.1914734e-16 0)
(1.218322 -5.6600118e-16 0)
(1.218322 -1.1792555e-15 0)
(1.218322 1.7484667e-16 0)
(1.218322 2.6374201e-15 0)
(1.218322 1.0245369e-15 0)
(1.218322 -1.1638684e-15 0)
(1.218322 -1.951178e-15 0)
(1.218322 -7.747988e-16 0)
(1.218322 -1.677304e-15 0)
(1.218322 -2.7345147e-16 0)
(1.218322 -2.636951e-16 0)
(1.218322 1.2270795e-16 0)
(1.218322 2.5731018e-15 0)
(1.218322 2.0599441e-15 0)
(1.218322 -9.0904035e-16 0)
(1.218322 -5.9755679e-16 0)
(1.218322 -8.373567e-16 0)
(1.218322 -1.6510075e-15 0)
(1.218322 1.1069375e-15 0)
(1.218322 1.8521528e-16 0)
(1.218322 8.4654668e-16 0)
(1.218322 1.5965466e-15 0)
(1.218322 -9.356182e-17 0)
(1.218322 -3.3087462e-18 0)
(1.218322 5.2001189e-16 0)
(1.218322 -1.1094322e-15 0)
(1.218322 -1.4229045e-15 0)
(1.218322 -1.0023151e-18 0)
(1.218322 1.4950139e-15 0)
(1.218322 6.7058788e-16 0)
(1.218322 -1.382328e-15 0)
(1.218322 5.0439538e-16 0)
(1.218322 3.9557227e-16 0)
(1.218322 -5.415259e-16 0)
(1.218322 5.2515429e-17 0)
(1.218322 1.0713734e-16 0)
(1.218322 -1.1117699e-16 0)
(1.218322 1.7424056e-15 0)
(1.218322 -1.8428978e-16 0)
(1.218322 -2.2747051e-15 0)
(1.218322 1.0903142e-15 0)
(1.218322 1.0121118e-15 0)
(1.218322 -7.3663716e-16 0)
(1.218322 -4.9163254e-16 0)
(1.218322 -7.024921e-16 0)
(1.218322 7.0265884e-16 0)
(1.218322 2.2391736e-15 0)
(1.218322 2.1958691e-16 0)
(1.218322 -5.7946508e-16 0)
(1.218322 -2.7056299e-15 0)
(1.218322 -1.7349454e-15 0)
(1.218322 2.6903982e-15 0)
(1.218322 -8.2993247e-16 0)
(1.218322 1.6961338e-16 0)
(1.218322 3.942864e-15 0)
(1.218322 -5.7627638e-16 0)
(1.218322 -2.3428636e-15 0)
(1.218322 -1.3835969e-15 0)
(1.218322 -9.2950576e-16 0)
(1.218322 8.6336255e-16 0)
(1.218322 -1.1063506e-15 0)
(1.218322 -3.4596138e-16 0)
(1.218322 2.676412e-15 0)
(1.218322 1.0778203e-15 0)
(1.218322 -5.5826162e-16 0)
(1.218322 -1.9791541e-15 0)
(1.218322 -3.2475714e-15 0)
(1.218322 -6.4232913e-16 0)
(1.218322 1.2650198e-15 0)
(1.218322 -2.1827179e-15 0)
(1.218322 4.3261738e-16 0)
(1.218322 2.6412794e-16 0)
(1.218322 -3.0692862e-15 0)
(1.218322 4.7403878e-16 0)
(1.218322 -1.1990934e-15 0)
(1.218322 -3.1167956e-15 0)
(1.218322 -1.156583e-15 0)
(1.218322 -1.5396163e-15 0)
(1.218322 -1.2879787e-15 0)
(1.218322 1.5646313e-15 0)
(1.218322 -3.0258001e-15 0)
(1.218322 -7.2772137e-15 0)
(1.218322 -8.2879297e-15 0)
(1.218322 -1.2976397e-14 0)
(1.218322 -1.8860723e-14 0)
(1.6876531 -1.6778208e-14 0)
(1.6876531 -1.5405135e-14 0)
(1.6876531 -1.2426061e-14 0)
(1.6876531 -9.2578531e-15 0)
(1.6876531 -6.6094649e-15 0)
(1.6876531 -4.5170357e-15 0)
(1.6876531 -2.9852309e-15 0)
(1.6876531 -2.0975909e-15 0)
(1.6876531 -1.8328606e-15 0)
(1.6876531 -1.6630111e-15 0)
(1.6876531 -1.7503267e-15 0)
(1.6876531 -1.7561473e-15 0)
(1.6876531 -1.7122029e-15 0)
(1.6876531 -1.6530003e-15 0)
(1.6876531 -1.7137955e-15 0)
(1.6876531 -2.0368201e-15 0)
(1.6876531 -1.991072e-15 0)
(1.6876531 -2.1214302e-15 0)
(1.6876531 -1.8076883e-15 0)
(1.6876531 -1.597965e-15 0)
(1.6876531 -1.5414944e-15 0)
(1.6876531 -1.1159739e-15 0)
(1.6876531 -7.8851443e-16 0)
(1.6876531 -5.6381787e-16 0)
(1.6876531 -3.1366272e-16 0)
(1.6876531 -3.657012e-16 0)
(1.6876531 -5.3660691e-16 0)
(1.6876531 -5.0430997e-16 0)
(1.6876531 -9.4715102e-16 0)
(1.6876531 -9.8636972e-16 0)
(1.6876531 -4.8247638e-16 0)
(1.6876531 1.9387939e-17 0)
(1.6876531 2.5721929e-16 0)
(1.6876531 1.880605e-16 0)
(1.6876531 3.9189685e-17 0)
(1.6876531 -1.2440876e-16 0)
(1.6876531 -6.2073489e-16 0)
(1.6876531 -8.1059661e-17 0)
(1.6876531 2.296293e-16 0)
(1.6876531 -1.4090613e-16 0)
(1.6876531 1.0554676e-16 0)
(1.6876531 -4.5791525e-16 0)
(1.6876531 -6.0860213e-16 0)
(1.6876531 -6.878229e-16 0)
(1.6876531 -4.2477257e-16 0)
(1.6876531 -8.0871986e-17 0)
(1.6876531 -4.0521108e-16 0)
(1.6876531 -1.009525e-15 0)
(1.6876531 -8.8502714e-16 0)
(1.6876531 -8.3949532e-16 0)
(1.6876531 -8.8328524e-16 0)
(1.6876531 -1.3635403e-15 0)
(1.6876531 -1.8663522e-15 0)
(1.6876531 -9.8692391e-16 0)
(1.6876531 -2.4721727e-16 0)
(1.6876531 -3.6419046e-16 0)
(1.6876531 3.1946808e-16 0)
(1.6876531 -1.3082984e-16 0)
(1.6876531 -5.23702e-17 0)
(1.6876531 2.8876077e-16 0)
(1.6876531 1.693976e-16 0)
(1.6876531 6.6629487e-16 0)
(1.6876531 7.2695663e-16 0)
(1.6876531 6.8029631e-16 0)
(1.6876531 5.5418832e-16 0)
(1.6876531 4.7901721e-16 0)
(1.6876531 -1.8201759e-16 0)
(1.6876531 -3.8450995e-16 0)
(1.6876531 4.1088115e-16 0)
(1.6876531 4.7256135e-16 0)
(1.6876531 1.9529058e-16 0)
(1.6876531 5.987592e-16 0)
(1.6876531 1.5789467e-15 0)
(1.6876531 8.5774759e-16 0)
(1.6876531 3.307765e-16 0)
(1.6876531 1.7944866e-15 0)
(1.6876531 1.3802571e-15 0)
(1.6876531 1.0881429e-16 0)
(1.6876531 -3.0321842e-17 0)
(1.6876531 1.2825085e-15 0)
(1.6876531 1.8097269e-15 0)
(1.6876531 1.1018433e-15 0)
(1.6876531 9.6869712e-16 0)
(1.6876531 4.9068732e-16 0)
(1.6876531 4.2349999e-16 0)
(1.6876531 8.6844893e-16 0)
(1.6876531 7.5556817e-16 0)
(1.6876531 5.9997978e-16 0)
(1.6876531 6.9912493e-16 0)
(1.6876531 1.0974217e-15 0)
(1.6876531 1.7522694e-15 0)
(1.6876531 1.0353892e-15 0)
(1.6876531 1.3496783e-15 0)
(1.6876531 1.2429309e-15 0)
(1.6876531 2.5020481e-16 0)
(1.6876531 -5.3259904e-16 0)
(1.6876531 2.776021e-17 0)
(1.6876531 4.024164e-16 0)
(1.6876531 -1.2163342e-15 0)
(1.6876531 -1.4279473e-15 0)
(1.6876531 1.8436301e-16 0)
(1.6876531 2.549121e-16 0)
(1.6876531 -4.2461171e-16 0)
(1.6876531 -1.1457323e-15 0)
(1.6876531 -9.5710112e-16 0)
(1.6876531 -7.0445792e-16 0)
(1.6876531 -1.0197791e-15 0)
(1.6876531 -6.2121618e-16 0)
(1.6876531 1.2843382e-15 0)
(1.6876531 1.0952834e-15 0)
(1.6876531 -2.0262045e-16 0)
(1.6876531 -3.9003959e-16 0)