# Probe 0 (1 0.5 0)
# Time          0              
0.00025         (0.0012482851 1.1712003e-18 0)
0.0005          (0.0024974083 -4.0541971e-19 0)
0.00075         (0.0037468107 -1.0017781e-19 0)
0.001           (0.0049963061 6.6768953e-19 0)
0.00125         (0.0062458324 -3.5549842e-19 0)
0.0015          (0.0074953689 -5.2853493e-19 0)
0.00175         (0.0087449087 -8.9312042e-19 0)
0.002           (0.0099944495 -1.3380289e-18 0)
0.00225         (0.011243991 -1.4220909e-18 0)
0.0025          (0.012493532 -1.4871336e-18 0)
0.00275         (0.013743073 -8.7047781e-19 0)
0.003           (0.014992613 -1.4692965e-18 0)
0.00325         (0.016242154 -3.9755232e-18 0)
0.0035          (0.017491695 -1.724973e-18 0)
0.00375         (0.018741235 -3.9722856e-18 0)
0.004           (0.019990776 -4.7304398e-18 0)
0.00425         (0.021240316 -4.9295329e-18 0)
0.0045          (0.022489856 -3.7226074e-18 0)
0.00475         (0.023739396 -5.3438554e-18 0)
0.005           (0.024988936 -5.627093e-18 0)
0.00525         (0.026238476 -3.5434635e-18 0)
0.0055          (0.027488015 -4.6015333e-18 0)
0.00575         (0.028737555 -3.8076235e-18 0)
0.006           (0.029987094 -2.2521137e-18 0)
0.00625         (0.031236633 -6.916301e-19 0)
0.0065          (0.032486172 6.4249775e-19 0)
0.00675         (0.033735711 -1.3417794e-19 0)
0.007           (0.03498525 2.6287082e-18 0)
0.00725         (0.036234789 1.4141229e-18 0)
0.0075          (0.037484327 -1.5463605e-18 0)
0.00775         (0.038733866 2.6713425e-19 0)
0.008           (0.039983404 2.8729386e-18 0)
0.00825         (0.041232942 -2.8445326e-19 0)
0.0085          (0.04248248 -1.4892656e-18 0)
0.00875         (0.043732018 -7.1107776e-19 0)
0.009           (0.044981556 1.1525629e-18 0)
0.00925         (0.046231093 1.4377513e-18 0)
0.0095          (0.047480631 -2.7037848e-18 0)
0.00975         (0.048730168 -3.5157809e-18 0)
0.01            (0.049979706 -3.0197792e-18 0)
0.01025         (0.051229243 7.744524e-19 0)
0.0105          (0.05247878 1.4558959e-18 0)
0.01075         (0.053728317 3.4807351e-18 0)
0.011           (0.054977853 6.6117076e-18 0)
0.01125         (0.05622739 2.7305981e-18 0)
0.0115          (0.057476926 -3.5725167e-18 0)
0.01175         (0.058726463 -1.5330011e-18 0)
0.012           (0.059975999 3.634597e-19 0)
0.01225         (0.061225535 2.0209298e-18 0)
0.0125          (0.062475071 1.1075127e-17 0)
0.01275         (0.063724607 7.3954148e-18 0)
0.013           (0.064974143 -2.4590369e-18 0)
0.01325         (0.066223678 -4.3569585e-18 0)
0.0135          (0.067473214 -1.0224524e-17 0)
0.01375         (0.068722749 -7.3210317e-18 0)
0.014           (0.069972284 -9.7024488e-18 0)
0.01425         (0.071221819 -1.2731416e-17 0)
0.0145          (0.072471354 -1.2069135e-17 0)
0.01475         (0.073720889 -1.8106523e-17 0)
0.015           (0.074970423 -1.6111167e-17 0)
0.01525         (0.076219958 -1.1445104e-17 0)
0.0155          (0.077469492 -1.313011e-17 0)
0.01575         (0.078719027 -1.7399928e-17 0)
0.016           (0.079968561 -2.2561521e-17 0)
0.01625         (0.081218095 -1.7720298e-17 0)
0.0165          (0.082467629 -1.8858693e-17 0)
0.01675         (0.083717162 -1.5169172e-17 0)
0.017           (0.084966696 -1.6724967e-17 0)
0.01725         (0.086216229 -1.7469048e-17 0)
0.0175          (0.087465763 -2.0986372e-17 0)
0.01775         (0.088715296 -2.4714945e-17 0)
0.018           (0.089964829 -2.2152394e-17 0)
0.01825         (0.091214362 -2.4803832e-17 0)
0.0185          (0.092463895 -2.6120076e-17 0)
0.01875         (0.093713428 -2.2615868e-17 0)
0.019           (0.09496296 -1.7919765e-17 0)
0.01925         (0.096212493 -2.3387261e-17 0)
0.0195          (0.097462025 -1.5386111e-17 0)
0.01975         (0.098711557 -1.8943192e-17 0)
0.02            (0.099961089 -1.9352365e-17 0)
0.02025         (0.10121062 -2.6667629e-17 0)
0.0205          (0.10246015 -2.2294776e-17 0)
0.02075         (0.10370968 -2.4763056e-17 0)
0.021           (0.10495922 -1.8078083e-17 0)
0.02125         (0.10620875 -1.4180303e-17 0)
0.0215          (0.10745828 -1.8214706e-17 0)
0.02175         (0.10870781 -1.8639138e-17 0)
0.022           (0.10995734 -1.8940105e-17 0)
0.02225         (0.11120687 -2.7395861e-17 0)
0.0225          (0.1124564 -3.2168781e-17 0)
0.02275         (0.11370593 -2.744956e-17 0)
0.023           (0.11495546 -2.1727008e-17 0)
0.02325         (0.11620499 -2.2887715e-17 0)
0.0235          (0.11745452 -2.8383265e-17 0)
0.02375         (0.11870405 -2.5937133e-17 0)
0.024           (0.11995358 -1.5547156e-17 0)
0.02425         (0.12120311 -1.2590285e-17 0)
0.0245          (0.12245264 -4.9722283e-19 0)
0.02475         (0.12370217 -8.0023516e-18 0)
0.025           (0.1249517 8.1728479e-19 0)
0.02525         (0.12620123 -1.2302053e-17 0)
0.0255          (0.12745076 4.7098129e-18 0)
0.02575         (0.12870029 7.5865938e-18 0)
0.026           (0.12994982 1.2196315e-17 0)
0.02625         (0.13119935 9.2025356e-19 0)
0.0265          (0.13244888 -2.6571892e-18 0)
0.02675         (0.1336984 -2.7591454e-18 0)
0.027           (0.13494793 -2.2716351e-18 0)
0.02725         (0.13619746 -8.8463883e-18 0)
0.0275          (0.13744699 -1.600805e-18 0)
0.02775         (0.13869652 8.9009323e-18 0)
0.028           (0.13994605 1.9406415e-17 0)
0.02825         (0.14119557 -7.8591401e-18 0)
0.0285          (0.1424451 -5.2938831e-19 0)
0.02875         (0.14369463 -2.2776626e-17 0)
0.029           (0.14494416 -3.6557522e-17 0)
0.02925         (0.14619368 -7.1792095e-18 0)
0.0295          (0.14744321 -7.7909655e-18 0)
0.02975         (0.14869274 -1.4916426e-17 0)
0.03            (0.14994226 1.2538548e-18 0)
0.03025         (0.15119179 7.6688094e-18 0)
0.0305          (0.15244132 -6.0120341e-18 0)
0.03075         (0.15369084 -1.3037885e-17 0)
0.031           (0.15494037 -7.3657409e-18 0)
0.03125         (0.1561899 6.229921e-18 0)
0.0315          (0.15743942 1.0285297e-17 0)
0.03175         (0.15868895 1.3721291e-17 0)
0.032           (0.15993847 6.2504966e-18 0)
0.03225         (0.161188 2.445516e-18 0)
0.0325          (0.16243752 1.7575656e-17 0)
0.03275         (0.16368705 2.3597341e-17 0)
0.033           (0.16493657 2.4040936e-17 0)
0.03325         (0.1661861 1.610913e-17 0)
0.0335          (0.16743562 4.0971979e-18 0)
0.03375         (0.16868515 8.5331251e-18 0)
0.034           (0.16993467 1.6991516e-17 0)
0.03425         (0.1711842 8.6151293e-18 0)
0.0345          (0.17243372 2.1923904e-17 0)
0.03475         (0.17368325 1.7974814e-17 0)
0.035           (0.17493277 1.9320163e-17 0)
0.03525         (0.1761823 6.5056805e-18 0)
0.0355          (0.17743182 2.6863166e-17 0)
0.03575         (0.17868134 3.4352565e-17 0)
0.036           (0.17993087 3.7239061e-17 0)
0.03625         (0.18118039 4.0528565e-17 0)
0.0365          (0.18242991 3.4840028e-17 0)
0.03675         (0.18367944 4.0318872e-17 0)
0.037           (0.18492896 3.9591017e-17 0)
0.03725         (0.18617848 3.4685971e-17 0)
0.0375          (0.18742801 1.3368435e-17 0)
0.03775         (0.18867753 2.032626e-17 0)
0.038           (0.18992705 3.073058e-17 0)
0.03825         (0.19117657 3.068633e-17 0)
0.0385          (0.1924261 3.697992e-17 0)
0.03875         (0.19367562 3.8847458e-17 0)
0.039           (0.19492514 4.6021835e-17 0)
0.03925         (0.19617466 4.0747674e-17 0)
0.0395          (0.19742418 3.4999842e-17 0)
0.03975         (0.19867371 4.7437308e-17 0)
0.04            (0.19992323 5.5920183e-17 0)
0.04025         (0.20117275 6.8302053e-17 0)
0.0405          (0.20242227 6.9685528e-17 0)
0.04075         (0.20367179 8.3275737e-17 0)
0.041           (0.20492131 7.8501052e-17 0)
0.04125         (0.20617083 6.8756206e-17 0)
0.0415          (0.20742035 5.9844275e-17 0)
0.04175         (0.20866987 5.6148769e-17 0)
0.042           (0.20991939 5.2957178e-17 0)
0.04225         (0.21116891 4.7734348e-17 0)
0.0425          (0.21241843 3.5982654e-17 0)
0.04275         (0.21366795 3.8774618e-17 0)
0.043           (0.21491747 2.8133621e-17 0)
0.04325         (0.21616699 4.7250575e-17 0)
0.0435          (0.21741651 5.0492331e-17 0)
0.04375         (0.21866603 5.4544526e-17 0)
0.044           (0.21991555 4.6780931e-17 0)
0.04425         (0.22116507 6.563045e-17 0)
0.0445          (0.22241459 8.0671359e-17 0)
0.04475         (0.22366411 6.5508038e-17 0)
0.045           (0.22491363 5.9774518e-17 0)
0.04525         (0.22616315 3.8820554e-17 0)
0.0455          (0.22741267 3.4704234e-17 0)
0.04575         (0.22866218 4.0676507e-17 0)
0.046           (0.2299117 4.5920712e-17 0)
0.04625         (0.23116122 4.7211958e-17 0)
0.0465          (0.23241074 4.0451568e-17 0)
0.04675         (0.23366026 2.8992126e-17 0)
0.047           (0.23490978 2.1331477e-17 0)
0.04725         (0.23615929 5.8717471e-17 0)
0.0475          (0.23740881 6.6670174e-17 0)
0.04775         (0.23865833 6.4515771e-17 0)
0.048           (0.23990784 7.445977e-17 0)
0.04825         (0.24115736 8.9407412e-17 0)
0.0485          (0.24240688 1.0181385e-16 0)
0.04875         (0.2436564 1.1319672e-16 0)
0.049           (0.24490591 8.4916679e-17 0)
0.04925         (0.24615543 7.1829049e-17 0)
0.0495          (0.24740495 9.730391e-17 0)
0.04975         (0.24865446 9.2790568e-17 0)
0.05            (0.24990398 9.6108436e-17 0)
0.05025         (0.25115349 8.319013e-17 0)
0.0505          (0.25240301 8.4605814e-17 0)
0.05075         (0.25365253 9.2519199e-17 0)
0.051           (0.25490204 1.2265491e-16 0)
0.05125         (0.25615156 9.7875263e-17 0)
0.0515          (0.25740107 1.0297715e-16 0)
0.05175         (0.25865059 9.2701424e-17 0)
0.052           (0.2599001 1.1271656e-16 0)
0.05225         (0.26114962 9.6837473e-17 0)
0.0525          (0.26239913 9.9916216e-17 0)
0.05275         (0.26364865 9.7603521e-17 0)
0.053           (0.26489816 1.1875884e-16 0)
0.05325         (0.26614768 9.2961188e-17 0)
0.0535          (0.26739719 1.3008831e-16 0)
0.05375         (0.2686467 1.3314022e-16 0)
0.054           (0.26989622 1.4443253e-16 0)
0.05425         (0.27114573 1.5843772e-16 0)
0.0545          (0.27239525 1.4755095e-16 0)
0.05475         (0.27364476 1.5533132e-16 0)
0.055           (0.27489427 1.7927319e-16 0)
0.05525         (0.27614379 1.8121364e-16 0)
0.0555          (0.2773933 1.6559587e-16 0)
0.05575         (0.27864281 1.5336551e-16 0)
0.056           (0.27989233 1.6880526e-16 0)
0.05625         (0.28114184 1.2423672e-16 0)
0.0565          (0.28239135 9.3935514e-17 0)
0.05675         (0.28364086 8.3455694e-17 0)
0.057           (0.28489038 1.1403811e-16 0)
0.05725         (0.28613989 1.0886267e-16 0)
0.0575          (0.2873894 1.0633284e-16 0)
0.05775         (0.28863891 1.1366906e-16 0)
0.058           (0.28988842 1.4163939e-16 0)
0.05825         (0.29113794 1.6711824e-16 0)
0.0585          (0.29238745 1.8169365e-16 0)
0.05875         (0.29363696 1.6289421e-16 0)
0.059           (0.29488647 1.6042041e-16 0)
0.05925         (0.29613598 1.9833212e-16 0)
0.0595          (0.29738549 1.8745959e-16 0)
0.05975         (0.298635 2.1058738e-16 0)
0.06            (0.29988451 2.0817016e-16 0)
0.06025         (0.30113403 2.1113891e-16 0)
0.0605          (0.30238354 2.0148631e-16 0)
0.06075         (0.30363305 1.934693e-16 0)
0.061           (0.30488256 2.0319283e-16 0)
0.06125         (0.30613207 1.913655e-16 0)
0.0615          (0.30738158 1.7881718e-16 0)
0.06175         (0.30863109 1.7118093e-16 0)
0.062           (0.3098806 1.6627362e-16 0)
0.06225         (0.31113011 1.6683892e-16 0)
0.0625          (0.31237961 1.6124792e-16 0)
0.06275         (0.31362912 1.9247039e-16 0)
0.063           (0.31487863 1.8285152e-16 0)
0.06325         (0.31612814 1.8017327e-16 0)
0.0635          (0.31737765 1.812274e-16 0)
0.06375         (0.31862716 1.6649312e-16 0)
0.064           (0.31987667 1.4859091e-16 0)
0.06425         (0.32112618 1.2417131e-16 0)
0.0645          (0.32237569 1.5777963e-16 0)
0.06475         (0.32362519 1.6944214e-16 0)
0.065           (0.3248747 1.6227007e-16 0)
0.06525         (0.32612421 1.8985759e-16 0)
0.0655          (0.32737372 1.4015386e-16 0)
0.06575         (0.32862323 1.3354019e-16 0)
0.066           (0.32987273 1.4310734e-16 0)
0.06625         (0.33112224 1.6832407e-16 0)
0.0665          (0.33237175 1.8711476e-16 0)
0.06675         (0.33362125 1.91759e-16 0)
0.067           (0.33487076 1.8245342e-16 0)
0.06725         (0.33612027 1.6920521e-16 0)
0.0675          (0.33736978 2.139459e-16 0)
0.06775         (0.33861928 2.0770014e-16 0)
0.068           (0.33986879 2.1307955e-16 0)
0.06825         (0.34111829 2.1660409e-16 0)
0.0685          (0.3423678 2.338551e-16 0)
0.06875         (0.34361731 2.5659755e-16 0)
0.069           (0.34486681 2.7629115e-16 0)
0.06925         (0.34611632 2.883957e-16 0)
0.0695          (0.34736582 2.7852314e-16 0)
0.06975         (0.34861533 2.4558021e-16 0)
0.07            (0.34986483 2.4784222e-16 0)
0.07025         (0.35111434 2.4398365e-16 0)
0.0705          (0.35236385 2.3323056e-16 0)
0.07075         (0.35361335 2.4427162e-16 0)
0.071           (0.35486285 2.7015647e-16 0)
0.07125         (0.35611236 2.5871322e-16 0)
0.0715          (0.35736186 2.8035287e-16 0)
0.07175         (0.35861137 3.0485497e-16 0)
0.072           (0.35986087 2.8753289e-16 0)
0.07225         (0.36111038 2.9133258e-16 0)
0.0725          (0.36235988 2.7309368e-16 0)
0.07275         (0.36360938 3.1530504e-16 0)
0.073           (0.36485889 3.0191572e-16 0)
0.07325         (0.36610839 3.0504208e-16 0)
0.0735          (0.3673579 3.0312326e-16 0)
0.07375         (0.3686074 2.986098e-16 0)
0.074           (0.3698569 2.8352279e-16 0)
0.07425         (0.37110641 2.7365188e-16 0)
0.0745          (0.37235591 2.9523135e-16 0)
0.07475         (0.37360541 2.8554957e-16 0)
0.075           (0.37485491 3.2573634e-16 0)
0.07525         (0.37610442 3.1789473e-16 0)
0.0755          (0.37735392 3.3448693e-16 0)
0.07575         (0.37860342 3.3417642e-16 0)
0.076           (0.37985292 3.5412355e-16 0)
0.07625         (0.38110242 3.3371229e-16 0)
0.0765          (0.38235193 3.37385e-16 0)
0.07675         (0.38360143 3.445978e-16 0)
0.077           (0.38485093 3.2995102e-16 0)
0.07725         (0.38610043 3.4303075e-16 0)
0.0775          (0.38734993 3.4759302e-16 0)
0.07775         (0.38859943 3.5069413e-16 0)
0.078           (0.38984893 3.3230113e-16 0)
0.07825         (0.39109843 3.5561049e-16 0)
0.0785          (0.39234794 3.7247498e-16 0)
0.07875         (0.39359744 3.3984902e-16 0)
0.079           (0.39484694 3.7352193e-16 0)
0.07925         (0.39609644 3.6112159e-16 0)
0.0795          (0.39734594 3.3569135e-16 0)
0.07975         (0.39859544 3.6206016e-16 0)
0.08            (0.39984494 3.4912053e-16 0)
0.08025         (0.40109444 3.5377541e-16 0)
0.0805          (0.40234394 3.6706871e-16 0)
0.08075         (0.40359343 3.7134837e-16 0)
0.081           (0.40484293 3.7628089e-16 0)
0.08125         (0.40609243 4.0449205e-16 0)
0.0815          (0.40734193 4.5148359e-16 0)
0.08175         (0.40859143 4.3865857e-16 0)
0.082           (0.40984093 4.7505958e-16 0)
0.08225         (0.41109043 5.0294373e-16 0)
0.0825          (0.41233993 5.0757181e-16 0)
0.08275         (0.41358942 4.9951287e-16 0)
0.083           (0.41483892 4.713611e-16 0)
0.08325         (0.41608842 4.2037839e-16 0)
0.0835          (0.41733792 4.5336222e-16 0)
0.08375         (0.41858742 4.4214037e-16 0)
0.084           (0.41983691 4.7603965e-16 0)
0.08425         (0.42108641 4.8167753e-16 0)
0.0845          (0.42233591 4.7572487e-16 0)
0.08475         (0.42358541 4.5394651e-16 0)
0.085           (0.4248349 4.5653618e-16 0)
0.08525         (0.4260844 4.6299586e-16 0)
0.0855          (0.4273339 4.8683009e-16 0)
0.08575         (0.42858339 4.8264293e-16 0)
0.086           (0.42983289 4.8721576e-16 0)
0.08625         (0.43108239 4.6620489e-16 0)
0.0865          (0.43233188 4.5726242e-16 0)
0.08675         (0.43358138 4.3702633e-16 0)
0.087           (0.43483087 4.2271103e-16 0)
0.08725         (0.43608037 4.506835e-16 0)
0.0875          (0.43732986 4.8066797e-16 0)
0.08775         (0.43857936 4.9077729e-16 0)
0.088           (0.43982885 4.9836519e-16 0)
0.08825         (0.44107835 4.865338e-16 0)
0.0885          (0.44232784 5.0656728e-16 0)
0.08875         (0.44357734 4.9379276e-16 0)
0.089           (0.44482683 4.9936371e-16 0)
0.08925         (0.44607633 5.184578e-16 0)
0.0895          (0.44732582 4.9720366e-16 0)
0.08975         (0.44857532 5.4869625e-16 0)
0.09            (0.44982481 5.4030512e-16 0)
0.09025         (0.4510743 5.5414189e-16 0)
0.0905          (0.4523238 5.3205563e-16 0)
0.09075         (0.45357329 5.5391304e-16 0)
0.091           (0.45482278 5.7002091e-16 0)
0.09125         (0.45607228 5.7412551e-16 0)
0.0915          (0.45732177 5.6846208e-16 0)
0.09175         (0.45857126 6.0595411e-16 0)
0.092           (0.45982076 5.6964178e-16 0)
0.09225         (0.46107025 5.6024262e-16 0)
0.0925          (0.46231974 5.6983339e-16 0)
0.09275         (0.46356923 5.8793803e-16 0)
0.093           (0.46481873 5.4792066e-16 0)
0.09325         (0.46606822 5.7691327e-16 0)
0.0935          (0.46731771 5.7524597e-16 0)
0.09375         (0.4685672 5.7224751e-16 0)
0.094           (0.46981669 5.9724702e-16 0)
0.09425         (0.47106618 5.9800077e-16 0)
0.0945          (0.47231567 6.0294163e-16 0)
0.09475         (0.47356516 5.9708127e-16 0)
0.095           (0.47481466 6.2340879e-16 0)
0.09525         (0.47606415 5.7917504e-16 0)
0.0955          (0.47731364 5.6738091e-16 0)
0.09575         (0.47856313 5.7606334e-16 0)
0.096           (0.47981262 5.8254462e-16 0)
0.09625         (0.48106211 5.8546851e-16 0)
0.0965          (0.4823116 6.2525241e-16 0)
0.09675         (0.48356109 6.1848588e-16 0)
0.097           (0.48481057 5.8996599e-16 0)
0.09725         (0.48606006 5.8368095e-16 0)
0.0975          (0.48730955 5.6775418e-16 0)
0.09775         (0.48855904 6.2113072e-16 0)
0.098           (0.48980853 5.9060198e-16 0)
0.09825         (0.49105802 6.1053955e-16 0)
0.0985          (0.49230751 6.4108788e-16 0)
0.09875         (0.49355699 6.6332404e-16 0)
0.099           (0.49480648 7.039025e-16 0)
0.09925         (0.49605597 7.3093289e-16 0)
0.0995          (0.49730546 6.9768891e-16 0)
0.09975         (0.49855494 6.8005308e-16 0)
0.1             (0.49980443 6.8582283e-16 0)
0.10025         (0.50105392 6.7411622e-16 0)
0.1005          (0.50230341 7.240858e-16 0)
0.10075         (0.50355289 6.7125288e-16 0)
0.101           (0.50480238 7.1624926e-16 0)
0.10125         (0.50605186 6.8414e-16 0)
0.1015          (0.50730135 7.03952e-16 0)
0.10175         (0.50855084 6.836408e-16 0)
0.102           (0.50980032 7.1691335e-16 0)
0.10225         (0.51104981 7.085895e-16 0)
0.1025          (0.51229929 7.2005772e-16 0)
0.10275         (0.51354878 7.4731144e-16 0)
0.103           (0.51479826 7.8027531e-16 0)
0.10325         (0.51604774 7.2538398e-16 0)
0.1035          (0.51729723 7.3154829e-16 0)
0.10375         (0.51854671 7.6543958e-16 0)
0.104           (0.5197962 7.7833962e-16 0)
0.10425         (0.52104568 7.9630622e-16 0)
0.1045          (0.52229516 8.4361611e-16 0)
0.10475         (0.52354465 8.3069569e-16 0)
0.105           (0.52479413 7.7827893e-16 0)
0.10525         (0.52604361 7.6743272e-16 0)
0.1055          (0.52729309 7.2343081e-16 0)
0.10575         (0.52854258 8.6123114e-16 0)
0.106           (0.52979206 8.1201192e-16 0)
0.10625         (0.53104154 8.124262e-16 0)
0.1065          (0.53229102 8.3018493e-16 0)
0.10675         (0.5335405 7.4648008e-16 0)
0.107           (0.53478998 7.1785637e-16 0)
0.10725         (0.53603946 7.4042071e-16 0)
0.1075          (0.53728894 7.6209911e-16 0)
0.10775         (0.53853842 7.2434791e-16 0)
0.108           (0.5397879 7.9612614e-16 0)
0.10825         (0.54103738 7.6812767e-16 0)
0.1085          (0.54228686 8.4440643e-16 0)
0.10875         (0.54353634 7.7179645e-16 0)
0.109           (0.54478582 7.3654988e-16 0)
0.10925         (0.5460353 7.733224e-16 0)
0.1095          (0.54728478 7.8400569e-16 0)
0.10975         (0.54853426 7.8661552e-16 0)
0.11            (0.54978373 7.6180467e-16 0)
0.11025         (0.55103321 7.7647017e-16 0)
0.1105          (0.55228269 7.541642e-16 0)
0.11075         (0.55353217 7.8113947e-16 0)
0.111           (0.55478164 8.3281981e-16 0)
0.11125         (0.55603112 9.1583461e-16 0)
0.1115          (0.55728059 8.7834198e-16 0)
0.11175         (0.55853007 9.065676e-16 0)
0.112           (0.55977955 9.0066253e-16 0)
0.11225         (0.56102902 8.7441892e-16 0)
0.1125          (0.5622785 8.8244018e-16 0)
0.11275         (0.56352797 8.6657115e-16 0)
0.113           (0.56477744 8.6690918e-16 0)
0.11325         (0.56602692 7.9163643e-16 0)
0.1135          (0.56727639 8.4839559e-16 0)
0.11375         (0.56852586 8.3504754e-16 0)
0.114           (0.56977534 8.200985e-16 0)
0.11425         (0.57102481 8.2943719e-16 0)
0.1145          (0.57227428 8.6256425e-16 0)
0.11475         (0.57352375 8.3562521e-16 0)
0.115           (0.57477322 8.426746e-16 0)
0.11525         (0.5760227 8.2070978e-16 0)
0.1155          (0.57727217 8.6332659e-16 0)
0.11575         (0.57852164 8.5738452e-16 0)
0.116           (0.57977111 8.20438e-16 0)
0.11625         (0.58102058 8.1833573e-16 0)
0.1165          (0.58227005 8.3534452e-16 0)
0.11675         (0.58351951 8.3208296e-16 0)
0.117           (0.58476898 8.5210188e-16 0)
0.11725         (0.58601845 8.6001332e-16 0)
0.1175          (0.58726792 8.9379965e-16 0)
0.11775         (0.58851739 9.2035269e-16 0)
0.118           (0.58976685 8.893504e-16 0)
0.11825         (0.59101632 8.5617492e-16 0)
0.1185          (0.59226578 8.6821098e-16 0)
0.11875         (0.59351525 8.8990718e-16 0)
0.119           (0.59476472 8.765722e-16 0)
0.11925         (0.59601418 9.1533864e-16 0)
0.1195          (0.59726364 8.7452466e-16 0)
0.11975         (0.59851311 9.5332792e-16 0)
0.12            (0.59976257 8.8718535e-16 0)
0.12025         (0.60101203 9.4267137e-16 0)
0.1205          (0.6022615 9.2121974e-16 0)
0.12075         (0.60351096 9.1867668e-16 0)
0.121           (0.60476042 9.2982865e-16 0)
0.12125         (0.60600988 8.8006171e-16 0)
0.1215          (0.60725934 9.667561e-16 0)
0.12175         (0.6085088 9.8021887e-16 0)
0.122           (0.60975826 1.0001324e-15 0)
0.12225         (0.61100772 9.8035521e-16 0)
0.1225          (0.61225718 9.646785e-16 0)
0.12275         (0.61350664 9.2623055e-16 0)
0.123           (0.61475609 9.7298786e-16 0)
0.12325         (0.61600555 9.6366e-16 0)
0.1235          (0.61725501 9.668009e-16 0)
0.12375         (0.61850446 1.0172152e-15 0)
0.124           (0.61975392 9.6678322e-16 0)
0.12425         (0.62100337 9.2451784e-16 0)
0.1245          (0.62225283 8.9654678e-16 0)
0.12475         (0.62350228 9.7187833e-16 0)
0.125           (0.62475174 9.9076853e-16 0)
0.12525         (0.62600119 9.6773821e-16 0)
0.1255          (0.62725064 1.0547791e-15 0)
0.12575         (0.62850009 1.0400925e-15 0)
0.126           (0.62974954 1.0599793e-15 0)
0.12625         (0.63099899 9.4707535e-16 0)
0.1265          (0.63224844 1.0072795e-15 0)
0.12675         (0.63349789 9.6506115e-16 0)
0.127           (0.63474734 1.005683e-15 0)
0.12725         (0.63599679 9.8293943e-16 0)
0.1275          (0.63724623 9.6348068e-16 0)
0.12775         (0.63849568 9.4729243e-16 0)
0.128           (0.63974513 9.6559652e-16 0)
0.12825         (0.64099457 9.2979177e-16 0)
0.1285          (0.64224401 9.8334994e-16 0)
0.12875         (0.64349346 9.5633125e-16 0)
0.129           (0.6447429 9.4137019e-16 0)
0.12925         (0.64599234 9.4522207e-16 0)
0.1295          (0.64724178 1.0550539e-15 0)
0.12975         (0.64849122 1.0655028e-15 0)
0.13            (0.64974066 1.0369367e-15 0)
0.13025         (0.6509901 1.0399764e-15 0)
0.1305          (0.65223954 1.0952591e-15 0)
0.13075         (0.65348898 1.1224187e-15 0)
0.131           (0.65473842 1.1015731e-15 0)
0.13125         (0.65598785 1.1126339e-15 0)
0.1315          (0.65723729 1.1662535e-15 0)
0.13175         (0.65848672 1.1867919e-15 0)
0.132           (0.65973616 1.1401295e-15 0)
0.13225         (0.66098559 1.1433776e-15 0)
0.1325          (0.66223502 1.1710575e-15 0)
0.13275         (0.66348445 1.1992539e-15 0)
0.133           (0.66473388 1.1858584e-15 0)
0.13325         (0.66598331 1.1652818e-15 0)
0.1335          (0.66723274 1.2010773e-15 0)
0.13375         (0.66848217 1.2082056e-15 0)
0.134           (0.6697316 1.2564191e-15 0)
0.13425         (0.67098102 1.1860536e-15 0)
0.1345          (0.67223045 1.1507334e-15 0)
0.13475         (0.67347987 1.1598451e-15 0)
0.135           (0.67472929 1.1351997e-15 0)
0.13525         (0.67597872 1.1414712e-15 0)
0.1355          (0.67722814 1.193346e-15 0)
0.13575         (0.67847756 1.1475029e-15 0)
0.136           (0.67972698 1.1492998e-15 0)
0.13625         (0.68097639 1.1551615e-15 0)
0.1365          (0.68222581 1.1371232e-15 0)
0.13675         (0.68347523 1.1173997e-15 0)
0.137           (0.68472464 1.0556952e-15 0)
0.13725         (0.68597406 1.0820709e-15 0)
0.1375          (0.68722347 1.1238347e-15 0)
0.13775         (0.68847288 1.0709141e-15 0)
0.138           (0.68972229 1.1552227e-15 0)
0.13825         (0.6909717 1.1237826e-15 0)
0.1385          (0.69222111 1.1445874e-15 0)
0.13875         (0.69347052 1.1818024e-15 0)
0.139           (0.69471993 1.204229e-15 0)
0.13925         (0.69596933 1.206083e-15 0)
0.1395          (0.69721874 1.217783e-15 0)
0.13975         (0.69846814 1.216612e-15 0)
0.14            (0.69971754 1.2351588e-15 0)
0.14025         (0.70096694 1.2740572e-15 0)
0.1405          (0.70221634 1.3149251e-15 0)
0.14075         (0.70346574 1.3011729e-15 0)
0.141           (0.70471513 1.2630819e-15 0)
0.14125         (0.70596453 1.2336998e-15 0)
0.1415          (0.70721392 1.2161793e-15 0)
0.14175         (0.70846332 1.2005352e-15 0)
0.142           (0.70971271 1.1850306e-15 0)
0.14225         (0.7109621 1.1680011e-15 0)
0.1425          (0.71221149 1.122795e-15 0)
0.14275         (0.71346088 1.1286901e-15 0)
0.143           (0.71471026 1.1401492e-15 0)
0.14325         (0.71595965 1.1914569e-15 0)
0.1435          (0.71720903 1.1487067e-15 0)
0.14375         (0.71845841 1.1584876e-15 0)
0.144           (0.7197078 1.1695963e-15 0)
0.14425         (0.72095717 1.1989454e-15 0)
0.1445          (0.72220655 1.1375645e-15 0)
0.14475         (0.72345593 1.1041698e-15 0)
0.145           (0.7247053 1.1739578e-15 0)
0.14525         (0.72595468 1.1996885e-15 0)
0.1455          (0.72720405 1.1939426e-15 0)
0.14575         (0.72845342 1.1670345e-15 0)
0.146           (0.72970279 1.2053052e-15 0)
0.14625         (0.73095216 1.2355626e-15 0)
0.1465          (0.73220152 1.2700727e-15 0)
0.14675         (0.73345089 1.312421e-15 0)
0.147           (0.73470025 1.291888e-15 0)
0.14725         (0.73594961 1.2932522e-15 0)
0.1475          (0.73719897 1.2829866e-15 0)
0.14775         (0.73844833 1.2307985e-15 0)
0.148           (0.73969768 1.1470918e-15 0)
0.14825         (0.74094704 1.1725192e-15 0)
0.1485          (0.74219639 1.2048041e-15 0)
0.14875         (0.74344574 1.2016911e-15 0)
0.149           (0.74469509 1.2192803e-15 0)
0.14925         (0.74594444 1.2278005e-15 0)
0.1495          (0.74719378 1.2265462e-15 0)
0.14975         (0.74844313 1.1887703e-15 0)
0.15            (0.74969247 1.2423303e-15 0)
0.15025         (0.75094181 1.3143258e-15 0)
0.1505          (0.75219115 1.3120715e-15 0)
0.15075         (0.75344048 1.2795093e-15 0)
0.151           (0.75468982 1.3462123e-15 0)
0.15125         (0.75593915 1.4285832e-15 0)
0.1515          (0.75718848 1.4323873e-15 0)
0.15175         (0.75843781 1.4482347e-15 0)
0.152           (0.75968713 1.4881971e-15 0)
0.15225         (0.76093646 1.4829151e-15 0)
0.1525          (0.76218578 1.4882158e-15 0)
0.15275         (0.7634351 1.4607771e-15 0)
0.153           (0.76468442 1.4909453e-15 0)
0.15325         (0.76593373 1.4437036e-15 0)
0.1535          (0.76718305 1.5033246e-15 0)
0.15375         (0.76843236 1.5605951e-15 0)
0.154           (0.76968167 1.5544178e-15 0)
0.15425         (0.77093098 1.5817922e-15 0)
0.1545          (0.77218028 1.5621404e-15 0)
0.15475         (0.77342959 1.5483328e-15 0)
0.155           (0.77467889 1.5318438e-15 0)
0.15525         (0.77592819 1.5161632e-15 0)
0.1555          (0.77717748 1.5159271e-15 0)
0.15575         (0.77842678 1.5640276e-15 0)
0.156           (0.77967607 1.5619738e-15 0)
0.15625         (0.78092536 1.5339696e-15 0)
0.1565          (0.78217464 1.5907903e-15 0)
0.15675         (0.78342393 1.584224e-15 0)
0.157           (0.78467321 1.5297651e-15 0)
0.15725         (0.78592249 1.570476e-15 0)
0.1575          (0.78717177 1.5484463e-15 0)
0.15775         (0.78842104 1.5323145e-15 0)
0.158           (0.78967032 1.5972743e-15 0)
0.15825         (0.79091959 1.5492327e-15 0)
0.1585          (0.79216885 1.4644667e-15 0)
0.15875         (0.79341812 1.5448278e-15 0)
0.159           (0.79466738 1.5192147e-15 0)
0.15925         (0.79591664 1.4884475e-15 0)
0.1595          (0.7971659 1.4908191e-15 0)
0.15975         (0.79841515 1.4389793e-15 0)
0.16            (0.7996644 1.5433361e-15 0)
0.16025         (0.80091365 1.5592093e-15 0)
0.1605          (0.8021629 1.5651277e-15 0)
0.16075         (0.80341214 1.638028e-15 0)
0.161           (0.80466138 1.5704321e-15 0)
0.16125         (0.80591062 1.5809904e-15 0)
0.1615          (0.80715985 1.6576293e-15 0)
0.16175         (0.80840908 1.6453107e-15 0)
0.162           (0.80965831 1.6708019e-15 0)
0.16225         (0.81090754 1.6325818e-15 0)
0.1625          (0.81215676 1.6120245e-15 0)
0.16275         (0.81340598 1.6349393e-15 0)
0.163           (0.8146552 1.6656094e-15 0)
0.16325         (0.81590441 1.6756238e-15 0)
0.1635          (0.81715362 1.7005257e-15 0)
0.16375         (0.81840283 1.6901341e-15 0)
0.164           (0.81965204 1.6484528e-15 0)
0.16425         (0.82090124 1.6070476e-15 0)
0.1645          (0.82215044 1.675444e-15 0)
0.16475         (0.82339963 1.740109e-15 0)
0.165           (0.82464882 1.7345032e-15 0)
0.16525         (0.82589801 1.7631347e-15 0)
0.1655          (0.8271472 1.7768845e-15 0)
0.16575         (0.82839638 1.7494034e-15 0)
0.166           (0.82964556 1.7767689e-15 0)